VARIABLES="w (rad/s)"  
"abs(F   1   1)" "angle(F   1   1)"
"abs(F   1   2)" "angle(F   1   2)"
"abs(F   1   3)" "angle(F   1   3)"
"abs(F   1   4)" "angle(F   1   4)"
"abs(F   1   5)" "angle(F   1   5)"
"abs(F   1   6)" "angle(F   1   6)"
Zone t="Diffraction force - beta =   0.000 deg",I=   100,F=POINT
  0.1000000E-01  0.1639554E+04 -0.1570849E+01  0.4144043E+00 -0.9782611E+00  0.1158991E+04 -0.3141060E+01  0.5818108E+02 -0.1516911E+01  0.1341574E+05  0.1570723E+01  0.5992496E+02  0.6929816E-01
  0.5030303E-01  0.4144604E+05 -0.1570849E+01  0.1084284E+02 -0.1003362E+01  0.2959025E+05 -0.3129858E+01  0.1473904E+04 -0.1516819E+01  0.3391518E+06  0.1570724E+01  0.1502401E+04  0.7071175E-01
  0.9060606E-01  0.1341733E+06 -0.1570833E+01  0.3810788E+02 -0.1055113E+01  0.9663410E+05 -0.3105462E+01  0.4796628E+04 -0.1516683E+01  0.1098070E+07  0.1570743E+01  0.4764800E+04  0.7311465E-01
  0.1309091E+00  0.2792518E+06 -0.1570708E+01  0.8995772E+02 -0.1124839E+01  0.2012185E+06 -0.3070920E+01  0.1007093E+05 -0.1516242E+01  0.2285823E+07  0.1570871E+01  0.9577122E+04  0.7428311E-01
  0.1712121E+00  0.4761440E+06 -0.1570170E+01  0.1810375E+03 -0.1198370E+01  0.3390761E+06 -0.3029583E+01  0.1739755E+05 -0.1515250E+01  0.3898497E+07  0.1571414E+01  0.1551658E+05  0.7101857E-01
  0.2115152E+00  0.7248301E+06 -0.1568539E+01  0.3333010E+03 -0.1265433E+01  0.5027152E+06 -0.2984652E+01  0.2696051E+05 -0.1513073E+01  0.5936584E+07  0.1573048E+01  0.2206343E+05  0.5935616E-01
  0.2518182E+00  0.1026175E+07 -0.1564607E+01  0.5836596E+03 -0.1318989E+01  0.6821843E+06 -0.2938946E+01  0.3909612E+05 -0.1508099E+01  0.8407995E+07  0.1576978E+01  0.2866568E+05  0.3425939E-01
  0.2921212E+00  0.1382163E+07 -0.1556543E+01  0.9872221E+03 -0.1351851E+01  0.8664136E+06 -0.2894817E+01  0.5434800E+05 -0.1497613E+01  0.1133005E+08  0.1585033E+01  0.3482441E+05 -0.9867512E-02
  0.3324242E+00  0.1795296E+07 -0.1541888E+01  0.1625906E+04 -0.1359627E+01  0.1044438E+07 -0.2854113E+01  0.7350802E+05 -0.1478145E+01  0.1472449E+08  0.1599664E+01  0.4025859E+05 -0.7929320E-01
  0.3727273E+00  0.2267267E+07 -0.1517662E+01  0.2613919E+04 -0.1337815E+01  0.1206459E+07 -0.2818223E+01  0.9763578E+05 -0.1445193E+01  0.1860672E+08  0.1623842E+01  0.4497770E+05 -0.1801820E+00
  0.4130303E+00  0.2796059E+07 -0.1480585E+01  0.4104280E+04 -0.1282596E+01  0.1344483E+07 -0.2788165E+01  0.1279986E+06 -0.1393228E+01  0.2296199E+08  0.1660834E+01  0.4936005E+05 -0.3175348E+00
  0.4533333E+00  0.3371529E+07 -0.1427419E+01  0.6282179E+04 -0.1190424E+01  0.1452720E+07 -0.2764745E+01  0.1658393E+06 -0.1316458E+01  0.2770909E+08  0.1713868E+01  0.5422619E+05 -0.4924656E+00
  0.4936364E+00  0.3969810E+07 -0.1355466E+01  0.9324564E+04 -0.1058772E+01  0.1527498E+07 -0.2748656E+01  0.2117866E+06 -0.1209541E+01  0.3265418E+08  0.1785625E+01  0.6086814E+05 -0.6983684E+00
  0.5339394E+00  0.4548136E+07 -0.1263270E+01  0.1330729E+05 -0.8878359E+00  0.1567121E+07 -0.2740621E+01  0.2648525E+06 -0.1069376E+01  0.3744736E+08  0.1877540E+01  0.7097040E+05 -0.9173424E+00
  0.5742424E+00  0.5043432E+07 -0.1151454E+01  0.1807460E+05 -0.6813223E+00  0.1571572E+07 -0.2741509E+01  0.3212512E+06 -0.8964993E+00  0.4156994E+08  0.1988970E+01  0.8639500E+05 -0.1124176E+01
  0.6145454E+00  0.5382990E+07 -0.1023354E+01  0.2316513E+05 -0.4482589E+00  0.1542569E+07 -0.2752589E+01  0.3744030E+06 -0.6967765E+00  0.4442204E+08  0.2116545E+01  0.1086429E+06 -0.1296427E+01
  0.6548485E+00  0.5506011E+07 -0.8848420E+00  0.2781244E+05 -0.2023756E+00  0.1483399E+07 -0.2775707E+01  0.4160683E+06 -0.4814926E+00  0.4549771E+08  0.2254354E+01  0.1382223E+06 -0.1421484E+01
  0.6951515E+00  0.5387758E+07 -0.7429131E+00  0.3130589E+05  0.3974663E-01  0.1398776E+07 -0.2813483E+01  0.4404832E+06 -0.2646495E+00  0.4458614E+08  0.2395343E+01  0.1744193E+06 -0.1501325E+01
  0.7354546E+00  0.5047891E+07 -0.6036016E+00  0.3320734E+05  0.2635334E+00  0.1295196E+07 -0.2869678E+01  0.4461067E+06 -0.5902693E-01  0.4184092E+08  0.2533393E+01  0.2153245E+06 -0.1545017E+01
  0.7757576E+00  0.4537962E+07 -0.4702591E+00  0.3354075E+05  0.4581918E+00  0.1180718E+07 -0.2949281E+01  0.4360283E+06  0.1269955E+00  0.3767951E+08  0.2665025E+01  0.2586541E+06 -0.1563516E+01
  0.8160606E+00  0.3919424E+07 -0.3428982E+00  0.3254500E+05  0.6171853E+00  0.1065433E+07 -0.3058417E+01  0.4144982E+06  0.2896148E+00  0.3260222E+08  0.2790026E+01  0.3019591E+06 -0.1565702E+01
  0.8563637E+00  0.3247926E+07 -0.2180191E+00  0.3065040E+05  0.7345343E+00  0.9611950E+06  0.3080268E+01  0.3860012E+06  0.4277342E+00  0.2706326E+08  0.2911543E+01  0.3432259E+06 -0.1557552E+01
  0.8966666E+00  0.2567169E+07 -0.8789312E-01  0.2828817E+05  0.8043833E+00  0.8810118E+06  0.2898528E+01  0.3532072E+06  0.5402141E+00  0.2141760E+08  0.3036684E+01  0.3805066E+06 -0.1543102E+01
  0.9369696E+00  0.1910993E+07  0.6320287E-01  0.2603032E+05  0.8214033E+00  0.8369443E+06  0.2687202E+01  0.3191428E+06  0.6234519E+00  0.1593841E+08 -0.3103258E+01  0.4124055E+06 -0.1524429E+01
  0.9772727E+00  0.1310231E+07  0.2717438E+00  0.2443444E+05  0.7892936E+00  0.8377238E+06  0.2465245E+01  0.2871599E+06  0.6726148E+00  0.1086744E+08 -0.2907677E+01  0.4383296E+06 -0.1502910E+01
  0.1017576E+01  0.8122946E+06  0.6414394E+00  0.2386459E+05  0.7246437E+00  0.8920096E+06  0.2254887E+01  0.2610875E+06  0.6846172E+00  0.6567390E+07 -0.2555677E+01  0.4591193E+06 -0.1478629E+01
  0.1057879E+01  0.5492807E+06  0.1400235E+01  0.2470922E+05  0.6498597E+00  0.1038223E+07  0.2070147E+01  0.2472076E+06  0.6629455E+00  0.4168601E+07 -0.1762903E+01  0.4832525E+06 -0.1445952E+01
  0.1098182E+01  0.6639606E+06  0.2211300E+01  0.3024189E+05  0.5939439E+00  0.1663057E+07  0.1942944E+01  0.2760924E+06  0.6270238E+00  0.5224165E+07 -0.8776012E+00  0.5747282E+06 -0.1345169E+01
  0.1138485E+01  0.9392739E+06  0.2609799E+01  0.1214430E+05  0.7260799E+00  0.6243162E+06 -0.2139321E+01  0.1146178E+06  0.8826535E+00  0.7739946E+07 -0.4828900E+00  0.1985615E+06 -0.1644793E+01
  0.1178788E+01  0.1200122E+07  0.2821009E+01  0.2018542E+05  0.4311026E+00  0.3572336E+06  0.2043071E+01  0.1614605E+06  0.5779775E+00  0.1009024E+08 -0.2797369E+00  0.3245679E+06 -0.1506052E+01
  0.1219091E+01  0.1401456E+07  0.2961052E+01  0.2351642E+05  0.3534610E+00  0.4659982E+06  0.1788767E+01  0.1707922E+06  0.5009756E+00  0.1193918E+08 -0.1471944E+00  0.3198339E+06 -0.1440452E+01
  0.1259394E+01  0.1527144E+07  0.3073236E+01  0.2681772E+05  0.3045359E+00  0.4782822E+06  0.1665433E+01  0.1795014E+06  0.4248442E+00  0.1315784E+08 -0.4107162E-01  0.2860780E+06 -0.1368152E+01
  0.1299697E+01  0.1564860E+07 -0.3104553E+01  0.3102852E+05  0.2762928E+00  0.4445367E+06  0.1559694E+01  0.1984744E+06  0.3404496E+00  0.1364702E+08  0.5907044E-01  0.2332654E+06 -0.1286577E+01
  0.1340000E+01  0.1485053E+07 -0.2984439E+01  0.3807281E+05  0.2756740E+00  0.3825834E+06  0.1441171E+01  0.2472193E+06  0.2704663E+00  0.1317408E+08  0.1743871E+00  0.1698042E+06 -0.1202156E+01
  0.1380303E+01  0.1127549E+07 -0.2781835E+01  0.5628134E+05  0.3958252E+00  0.3043582E+06  0.1275364E+01  0.4025831E+06  0.3418881E+00  0.1048813E+08  0.3742900E+00  0.1025977E+06 -0.1102379E+01
  0.1420606E+01  0.2167408E+07  0.1895450E+01  0.2695093E+05  0.5839596E+00  0.2272838E+06  0.9966084E+00  0.2513979E+06  0.9103662E+00  0.1656411E+08 -0.1247487E+01  0.6196474E+05 -0.1606361E+01
  0.1460909E+01  0.1972724E+07  0.3139041E+01  0.3309626E+05  0.1779218E+01  0.1695385E+06  0.4899066E+00  0.2965339E+06  0.2018807E+01  0.1676304E+08 -0.9454475E-02  0.3224976E+05 -0.2138743E+00
  0.1501212E+01  0.1598654E+07 -0.2934265E+01  0.1944796E+05  0.1580974E+01  0.1762499E+06 -0.1736838E+00  0.1594042E+06  0.1983346E+01  0.1384039E+08  0.1912478E+00  0.5722750E+05  0.1102522E+01
  0.1541515E+01  0.1328470E+07 -0.2791555E+01  0.1633842E+05  0.1417380E+01  0.2361350E+06 -0.6052027E+00  0.1212428E+06  0.1840228E+01  0.1159161E+08  0.3221007E+00  0.1030115E+06  0.1430910E+01
  0.1581818E+01  0.1085039E+07 -0.2651306E+01  0.1618966E+05  0.1374843E+01  0.3111030E+06 -0.8131552E+00  0.1164100E+06  0.1741440E+01  0.9479051E+07  0.4478410E+00  0.1410813E+06  0.1596248E+01
  0.1622121E+01  0.8595997E+06 -0.2493860E+01  0.1978733E+05  0.1576789E+01  0.3834638E+06 -0.8979990E+00  0.1546936E+06  0.1830567E+01  0.7454664E+07  0.5885740E+00  0.1636085E+06  0.1737907E+01
  0.1662424E+01  0.6652330E+06 -0.2284627E+01  0.1296220E+05  0.2859713E+01  0.4504744E+06 -0.8478413E+00  0.1453050E+06 -0.3088825E+01  0.5653657E+07  0.7834821E+00  0.1557859E+06  0.1903177E+01
  0.1702727E+01  0.4877169E+06 -0.2009390E+01  0.5271040E+04  0.2415944E+01  0.4428237E+06 -0.2076170E+00  0.3962644E+05 -0.3032360E+01  0.3961277E+07  0.1058745E+01  0.2695417E+05  0.1666707E+01
  0.1743030E+01  0.3562487E+06 -0.1641741E+01  0.5780688E+04  0.2393459E+01  0.2425258E+06 -0.1648512E+01  0.2547048E+05  0.2740368E+01  0.2714954E+07  0.1481815E+01  0.2128347E+06  0.1360641E+01
  0.1783333E+01  0.2768845E+06 -0.1165256E+01  0.5756218E+04  0.2625516E+01  0.3121220E+06 -0.1480611E+01  0.2402104E+05  0.2563582E+01  0.2111849E+07  0.2093906E+01  0.1844685E+06  0.1627368E+01
  0.1823636E+01  0.2325071E+06 -0.6626956E+00  0.6425397E+04  0.2644292E+01  0.2910885E+06 -0.1461334E+01  0.3300443E+05  0.2140124E+01  0.2034291E+07  0.2701807E+01  0.1495618E+06  0.1807212E+01
  0.1863939E+01  0.1768674E+06 -0.2821555E+00  0.1152677E+05 -0.3140577E+01  0.2396911E+06 -0.1485089E+01  0.8513506E+05  0.3027040E+01  0.1859635E+07  0.3130211E+01  0.9223241E+05  0.1760896E+01
  0.1904242E+01  0.8516862E+05 -0.1693008E+01  0.1354843E+05 -0.2386570E+01  0.1705934E+06 -0.1569730E+01  0.1108532E+06 -0.2372372E+01  0.3976092E+06  0.2760921E+01  0.6396046E+05  0.1726772E+01
  0.1944546E+01  0.9019033E+06 -0.6963771E+00  0.7410860E+04 -0.1376764E+01  0.9724115E+05 -0.1820816E+01  0.1120646E+06 -0.1086031E+01  0.7481920E+07  0.2439957E+01  0.4953000E+05  0.1900648E+01
  0.1984848E+01  0.6439404E+06  0.2059629E+00  0.2312901E+04  0.4194202E+00  0.5434943E+05 -0.2793990E+01  0.6533070E+05  0.9930553E-01  0.5832656E+07 -0.2969403E+01  0.1480199E+05  0.2745028E+01
  0.2025151E+01  0.5273391E+06  0.5457397E+00  0.1461423E+04  0.4489303E+00  0.9228588E+05  0.2573176E+01  0.4551038E+05  0.1995511E+00  0.4835181E+07 -0.2665207E+01  0.4446578E+05 -0.2055709E+01
  0.2065454E+01  0.4530962E+06  0.8045208E+00  0.3941420E+04  0.6073365E+00  0.1471309E+06  0.2375410E+01  0.5522125E+05  0.3649157E+00  0.4077240E+07 -0.2434262E+01  0.6018625E+05 -0.1360604E+01
  0.2105757E+01  0.3883753E+06  0.1048724E+01  0.6729057E+04  0.6613109E+00  0.1839474E+06  0.2437456E+01  0.7226695E+05  0.3708611E+00  0.3352684E+07 -0.2202892E+01  0.5211870E+05 -0.1065396E+01
  0.2146061E+01  0.3177424E+06  0.1289245E+01  0.1104346E+05  0.9334395E+00  0.1037461E+06 -0.3130467E+01  0.1060115E+06  0.7599951E+00  0.2594624E+07 -0.1944118E+01  0.5274958E+05 -0.2839905E+01
  0.2186364E+01  0.2511077E+06  0.1507766E+01  0.1113653E+05  0.1132843E+01  0.1668198E+06  0.1477660E+01  0.8876759E+05  0.1107183E+01  0.1918938E+07 -0.1653706E+01  0.1175241E+06 -0.1605051E+01
  0.2226667E+01  0.1883956E+06  0.1758789E+01  0.1180943E+05  0.1038602E+01  0.1776479E+06  0.1706190E+01  0.8060675E+05  0.9014738E+00  0.1379286E+07 -0.1258358E+01  0.9786919E+05 -0.1256951E+01
  0.2266970E+01  0.1248545E+06  0.1919696E+01  0.1374915E+05  0.1010342E+01  0.1474881E+06  0.1761078E+01  0.9365575E+05  0.7728099E+00  0.9159669E+06 -0.8475739E+00  0.7412727E+05 -0.9784795E+00
  0.2307273E+01  0.1224619E+06  0.1398615E+01  0.1563634E+05  0.1315953E+01  0.9860223E+05  0.1737688E+01  0.1260913E+06  0.1003630E+01  0.6266446E+06 -0.1480197E+01  0.4132819E+05 -0.1087013E+01
  0.2347576E+01  0.4286999E+06  0.2456135E+01  0.4004824E+04  0.5276868E+00  0.4647931E+05  0.1505269E+01  0.3212812E+05  0.1164461E+01  0.3677264E+07 -0.6902786E+00  0.4531998E+05 -0.8561186E+00
  0.2387879E+01  0.3073012E+06 -0.2855697E+01  0.8930372E+04  0.2572353E+00  0.2494975E+05 -0.1329401E+00  0.5173295E+05  0.8707077E-01  0.2943642E+07  0.2285380E+00  0.2614460E+05 -0.4590513E+00
  0.2428182E+01  0.2574362E+06 -0.2417751E+01  0.1002600E+05  0.1326166E+00  0.6446588E+05 -0.7456393E+00  0.6419098E+05 -0.1503700E+00  0.2449104E+07  0.6119726E+00  0.2460353E+05 -0.2225693E+00
  0.2468485E+01  0.2277156E+06 -0.2097148E+01  0.9963815E+04 -0.8561766E-01  0.9489702E+05 -0.7006383E+00  0.7163031E+05 -0.4040322E+00  0.2046668E+07  0.9096054E+00  0.1280416E+05  0.2379889E+00
  0.2508788E+01  0.1889824E+06 -0.1809224E+01  0.9032549E+04 -0.4445987E+00  0.4806228E+05 -0.9738743E-01  0.7415583E+05 -0.8606674E+00  0.1573739E+07  0.1220311E+01  0.6135282E+05 -0.1247525E+00
  0.2549091E+01  0.1455198E+06 -0.1546658E+01  0.1141342E+05 -0.8349397E+00  0.1076716E+06 -0.1725885E+01  0.1072122E+06 -0.1085352E+01  0.1112936E+07  0.1582446E+01  0.6755611E+05  0.1383157E+01
  0.2589394E+01  0.9800054E+05 -0.1338407E+01  0.1395865E+05 -0.1071556E+01  0.1115652E+06 -0.1441231E+01  0.1301111E+06 -0.1183690E+01  0.7010165E+06  0.2020358E+01  0.4667965E+05  0.1857756E+01
  0.2629697E+01  0.6183915E+05 -0.1372879E+01  0.1548941E+05 -0.1208568E+01  0.8454712E+05 -0.1349865E+01  0.1338377E+06 -0.1328583E+01  0.3856829E+06  0.2369523E+01  0.3715992E+05  0.2385598E+01
  0.2670000E+01  0.1658183E+06 -0.1518222E+01  0.1356019E+05 -0.1116323E+01  0.4563299E+05 -0.1365601E+01  0.1364864E+06 -0.1276185E+01  0.1194551E+07  0.1628038E+01  0.2947148E+05  0.2415914E+01
  0.2710303E+01  0.2087235E+06 -0.8970143E-01  0.1479418E+05 -0.1992483E+01  0.9526146E+04 -0.2556652E+01  0.1137794E+06 -0.1919783E+01  0.1997193E+07  0.3029192E+01  0.3034399E+05  0.2915079E+01
  0.2750606E+01  0.1662069E+06  0.5013398E+00  0.1892879E+05 -0.2058110E+01  0.3811244E+05  0.2393658E+01  0.1377033E+06 -0.2131231E+01  0.1649846E+07 -0.2725039E+01  0.3140047E+05  0.2851676E+01
  0.2790909E+01  0.1393299E+06  0.8552637E+00  0.2012957E+05 -0.2193644E+01  0.6193178E+05  0.2505702E+01  0.1515711E+06 -0.2372437E+01  0.1327118E+07 -0.2409321E+01  0.4427558E+05  0.3003447E+01
  0.2831212E+01  0.1032691E+06  0.1151436E+01  0.1968478E+05 -0.2331422E+01  0.1828153E+05  0.3091366E+01  0.1476451E+06 -0.2577463E+01  0.9034332E+06 -0.2112541E+01  0.8108105E+05 -0.2992249E+01
  0.2871515E+01  0.6318366E+05  0.1519214E+01  0.1909559E+05 -0.2511979E+01  0.7507148E+05  0.1435889E+01  0.1464581E+06 -0.2842073E+01  0.4690578E+06 -0.1637501E+01  0.5620615E+05 -0.1668728E+01
  0.2911818E+01  0.1452354E+05  0.2230000E+01  0.1764145E+05 -0.2806692E+01  0.7761380E+05  0.1710364E+01  0.1552540E+06  0.2969510E+01  0.1558081E+06  0.1693930E+00  0.3086492E+05 -0.3834065E+00
  0.2952121E+01  0.1240685E+05 -0.5511371E+00  0.1532327E+05 -0.3028728E+01  0.5543041E+05  0.1788574E+01  0.1578638E+06  0.2673183E+01  0.2461255E+06  0.1675560E+01  0.2723228E+05  0.1218573E+00
  0.2992424E+01  0.6560138E+05  0.2806552E+01  0.1517041E+05  0.2446827E+01  0.2769533E+05  0.1453998E+01  0.2380302E+06  0.2121841E+01  0.5449188E+06 -0.3084010E+00  0.7239654E+05 -0.1555212E+00
  0.3032727E+01  0.1212209E+06 -0.2281243E+01  0.2963267E+05  0.2125847E+01  0.2913324E+05  0.4137969E+00  0.3939494E+06  0.2018752E+01  0.1100005E+07  0.7895499E+00  0.1322679E+06  0.8475653E-01
  0.3073030E+01  0.1308290E+06 -0.1722097E+01  0.4561197E+05  0.2296275E+01  0.4803895E+05  0.1168140E+00  0.5523469E+06  0.2222561E+01  0.1137211E+07  0.1359941E+01  0.1913530E+06  0.1816387E+00
  0.3113333E+01  0.1137863E+06 -0.1337866E+01  0.5323336E+05  0.2438424E+01  0.7493688E+05  0.3130401E+00  0.6187598E+06  0.2392860E+01  0.9486890E+06  0.1809673E+01  0.2793236E+06  0.2628208E+00
  0.3153636E+01  0.8240101E+05 -0.1116519E+01  0.6508141E+05  0.2475446E+01  0.8286358E+05  0.7054989E+00  0.7089704E+06  0.2464698E+01  0.6520290E+06  0.2143147E+01  0.3660905E+06  0.5189193E+00
  0.3193939E+01  0.3273072E+05 -0.9714072E+00  0.7935422E+05  0.2682772E+01  0.9338355E+05  0.1017344E+01  0.8084228E+06  0.2677799E+01  0.2073047E+06  0.2713967E+01  0.3900864E+06  0.7428157E+00
  0.3234242E+01  0.7265418E+05 -0.2754305E+01  0.1055756E+06  0.2860891E+01  0.9937332E+05  0.1362489E+01  0.1008592E+07  0.2833161E+01  0.6973462E+06  0.1035290E+00  0.3675722E+06  0.9838054E+00
  0.3274545E+01  0.1369986E+06 -0.1262020E+01  0.1032195E+06 -0.2717130E+01  0.9730462E+05  0.1553991E+01  0.1000479E+07 -0.2790759E+01  0.1304871E+07  0.1781770E+01  0.2878118E+06  0.1165941E+01
  0.3314848E+01  0.5300331E+05  0.8922382E-01  0.7124029E+05 -0.2627584E+01  0.8531130E+05  0.1753124E+01  0.7180608E+06 -0.2673184E+01  0.4748104E+06  0.3092306E+01  0.2019684E+06  0.1273040E+01
  0.3355152E+01  0.4765464E+05  0.1584233E+01  0.6164098E+05 -0.2682137E+01  0.3607944E+05  0.1834975E+01  0.6291901E+06 -0.2686419E+01  0.3828440E+06 -0.1463801E+01  0.9612066E+05  0.1227429E+01
  0.3395455E+01  0.6706857E+05  0.2063838E+01  0.5610962E+05 -0.2672716E+01  0.1166474E+06  0.6841130E+00  0.5782148E+06 -0.2646191E+01  0.6054876E+06 -0.9133698E+00  0.1430440E+06  0.5444959E+00
  0.3435757E+01  0.7170975E+05  0.2075915E+01  0.4348071E+05 -0.2719701E+01  0.9693061E+05  0.1375536E+01  0.4535947E+06 -0.2650421E+01  0.6462759E+06 -0.8637090E+00  0.1114114E+06  0.1009878E+01
  0.3476061E+01  0.9152250E+05  0.1450664E+01  0.4251940E+05 -0.2973705E+01  0.5629138E+05  0.1670315E+01  0.4297117E+06 -0.2881447E+01  0.7369469E+06 -0.1617309E+01  0.6966069E+05  0.1327153E+01
  0.3516364E+01  0.2323625E+06  0.2033417E+01  0.4329378E+05 -0.2256224E+01  0.1932278E+05  0.2105755E+01  0.4793253E+06 -0.2218561E+01  0.2196728E+07 -0.1097506E+01  0.4118488E+05  0.1697540E+01
  0.3556667E+01  0.1502302E+06  0.2700876E+01  0.4830178E+04  0.7316079E+00  0.8622086E+04 -0.1912306E+01  0.5760318E+05 -0.6855640E+00  0.1492464E+07 -0.4196651E+00  0.1415512E+05  0.1835079E+01
  0.3596970E+01  0.7999591E+05  0.3077255E+01  0.2410722E+05  0.1544105E+01  0.6363295E+04 -0.2123664E+01  0.1873135E+06  0.1352512E+01  0.8126447E+06 -0.5934573E-01  0.1107274E+05  0.1478555E+01
  0.3637273E+01  0.3813387E+05 -0.2665023E+01  0.2885654E+05  0.1734696E+01  0.4966423E+05 -0.2505462E+01  0.2533071E+06  0.1575202E+01  0.3698650E+06  0.4537283E+00  0.1886286E+04 -0.1321862E+00
  0.3677576E+01  0.3885906E+05 -0.2223693E+01  0.2472204E+05  0.1736074E+01  0.4718183E+05 -0.1899011E+01  0.2343891E+06  0.1568184E+01  0.3231025E+06  0.9653903E+00  0.8693812E+04  0.1902084E+01
  0.3717879E+01  0.9502030E+05 -0.2091913E+01  0.1479902E+05  0.1762353E+01  0.3179618E+05 -0.1768284E+01  0.1577954E+06  0.1492668E+01  0.8180136E+06  0.1054766E+01  0.4028545E+05 -0.2940727E+01
  0.3758182E+01  0.1470764E+06 -0.1285793E+01  0.2114824E+05  0.9711602E-01  0.2253662E+05 -0.1638950E+01  0.2266630E+06  0.2060248E+00  0.1374993E+07  0.1877471E+01  0.8845373E+05 -0.2130632E+01
  0.3798485E+01  0.9883766E+05 -0.9016514E+00  0.2797229E+05  0.6062041E+00  0.1493089E+05 -0.1166613E+01  0.2958960E+06  0.6606277E+00  0.9587954E+06  0.2283272E+01  0.1123742E+06 -0.1680951E+01
  0.3838788E+01  0.5438548E+05 -0.7056621E+00  0.1577056E+05  0.6328967E+00  0.2643669E+05 -0.6467175E+00  0.1744475E+06  0.7582355E+00  0.5486642E+06  0.2501707E+01  0.1117690E+06 -0.1242509E+01
  0.3879091E+01  0.2051250E+05 -0.2718002E+00  0.1078328E+05 -0.4333272E+00  0.3915715E+05  0.3563474E+00  0.8695642E+05 -0.9460931E-01  0.2185865E+06  0.2948095E+01  0.7058004E+05 -0.7098011E+00
  0.3919394E+01  0.2505066E+05  0.6573159E+00  0.1751964E+05 -0.8485489E+00  0.2889615E+05  0.8858318E+00  0.1219470E+06 -0.8623220E+00  0.2270699E+06 -0.2474706E+01  0.1521737E+05 -0.2686072E+00
  0.3959697E+01  0.7965754E+05  0.1345759E+01  0.2406105E+05 -0.1070161E+01  0.1308237E+05  0.1451853E+01  0.2030392E+06 -0.1244013E+01  0.7351314E+06 -0.1794418E+01  0.7128862E+04  0.2172819E+01
  0.4000000E+01  0.7484020E+05  0.1976811E+01  0.2481367E+05 -0.9286601E+00  0.6409974E+04 -0.2109073E+01  0.2305077E+06 -0.1076391E+01  0.7218105E+06 -0.1138797E+01  0.4336533E+04 -0.1790665E+00
