VARIABLES="w (rad/s)"  
"abs(F   1   1)" "angle(F   1   1)"
"abs(F   1   2)" "angle(F   1   2)"
"abs(F   1   3)" "angle(F   1   3)"
"abs(F   1   4)" "angle(F   1   4)"
"abs(F   1   5)" "angle(F   1   5)"
"abs(F   1   6)" "angle(F   1   6)"
Zone t="Diffraction force - beta =   0.000 deg",I=   100,F=POINT
  0.1000000E-01  0.4167795E+04 -0.1570806E+01  0.1368793E+01 -0.2531116E+00  0.9920697E+07 -0.6221560E-07  0.1569233E+03 -0.1554810E+01  0.3404594E+05  0.1570782E+01  0.2586349E+03  0.2833014E-01
  0.5030303E-01  0.1052411E+06 -0.1570818E+01  0.9877970E+01 -0.1036427E+01  0.9830976E+07 -0.3531836E-04  0.3961629E+04 -0.1531751E+01  0.8597279E+06  0.1570747E+01  0.6489385E+04  0.2897467E-01
  0.9060606E-01  0.3397898E+06 -0.1570811E+01  0.3203424E+02 -0.9698675E+00  0.9621919E+07 -0.3627901E-03  0.1276769E+05 -0.1530709E+01  0.2776042E+07  0.1570755E+01  0.2082424E+05  0.2999918E-01
  0.1309091E+00  0.7040510E+06 -0.1570762E+01  0.6456762E+02 -0.9401345E+00  0.9297651E+07 -0.1528232E-02  0.2638703E+05 -0.1528973E+01  0.5752854E+07  0.1570809E+01  0.4272646E+05  0.3098141E-01
  0.1712121E+00  0.1192543E+07 -0.1570547E+01  0.1054496E+03 -0.9362022E+00  0.8867507E+07 -0.4274174E-02  0.4456571E+05 -0.1527269E+01  0.9746304E+07  0.1571029E+01  0.7135566E+05  0.3125324E-01
  0.2115152E+00  0.1798649E+07 -0.1569887E+01  0.1594268E+03 -0.9147347E+00  0.8345988E+07 -0.9414752E-02  0.6703079E+05 -0.1524473E+01  0.1470360E+08  0.1571694E+01  0.1056285E+06  0.3012835E-01
  0.2518182E+00  0.2515113E+07 -0.1568272E+01  0.2328561E+03 -0.9444811E+00  0.7751542E+07 -0.1771352E-01  0.9357450E+05 -0.1520651E+01  0.2056697E+08  0.1573316E+01  0.1442809E+06  0.2692283E-01
  0.2921212E+00  0.3334392E+07 -0.1564890E+01  0.3575998E+03 -0.9895475E+00  0.7104500E+07 -0.2979530E-01  0.1241388E+06 -0.1513814E+01  0.2727679E+08  0.1576707E+01  0.1859338E+06  0.2114988E-01
  0.3324242E+00  0.4248142E+07 -0.1558582E+01  0.5933411E+03 -0.1026104E+01  0.6425156E+07 -0.4610715E-01  0.1588721E+06 -0.1502000E+01  0.3476697E+08  0.1583023E+01  0.2292035E+06  0.1250150E-01
  0.3727273E+00  0.5245716E+07 -0.1547842E+01  0.1042528E+04 -0.1021458E+01  0.5732198E+07 -0.6693082E-01  0.1981471E+06 -0.1482304E+01  0.4295305E+08  0.1593773E+01  0.2727006E+06  0.8528413E-03
  0.4130303E+00  0.6310699E+07 -0.1530874E+01  0.1870497E+04 -0.9608971E+00  0.5041870E+07 -0.9242918E-01  0.2424783E+06 -0.1450156E+01  0.5170351E+08  0.1610752E+01  0.3150118E+06 -0.1388016E-01
  0.4533333E+00  0.7415271E+07 -0.1505789E+01  0.3313544E+04 -0.8508091E+00  0.4367561E+07 -0.1227087E+00  0.2921759E+06 -0.1399873E+01  0.6079353E+08  0.1635849E+01  0.3546857E+06 -0.3189442E-01
  0.4936364E+00  0.8512889E+07 -0.1470996E+01  0.5668097E+04 -0.6982285E+00  0.3720095E+07 -0.1578786E+00  0.3465897E+06 -0.1325085E+01  0.6984471E+08  0.1670653E+01  0.3902465E+06 -0.5373667E-01
  0.5339394E+00  0.9531994E+07 -0.1425866E+01  0.9236941E+04 -0.5076194E+00  0.3107989E+07 -0.1980976E+00  0.4029763E+06 -0.1220676E+01  0.7827226E+08  0.1715797E+01  0.4203159E+06 -0.8042463E-01
  0.5742424E+00  0.1037651E+08 -0.1371595E+01  0.1415487E+05 -0.2869073E+00  0.2537892E+07 -0.2435904E+00  0.4555439E+06 -0.1084393E+01  0.8528782E+08  0.1770082E+01  0.4438670E+06 -0.1137883E+00
  0.6145454E+00  0.1094423E+08 -0.1311915E+01  0.2026270E+05 -0.4618047E-01  0.2014532E+07 -0.2946471E+00  0.4962150E+06 -0.9194053E+00  0.9004992E+08  0.1829780E+01  0.4604906E+06 -0.1561890E+00
  0.6548485E+00  0.1116088E+08 -0.1253012E+01  0.2694082E+05  0.2015479E+00  0.1540897E+07 -0.3516027E+00  0.5170223E+06 -0.7347577E+00  0.9194162E+08  0.1888705E+01  0.4708501E+06 -0.2094529E+00
  0.6951515E+00  0.1101367E+08 -0.1202248E+01  0.3335508E+05  0.4404369E+00  0.1118438E+07 -0.4147695E+00  0.5148379E+06 -0.5425488E+00  0.9084941E+08  0.1939499E+01  0.4762868E+06 -0.2744245E+00
  0.7354546E+00  0.1055703E+08 -0.1166223E+01  0.3873069E+05  0.6580144E+00  0.7468108E+06 -0.4844159E+00  0.4922620E+06 -0.3544029E+00  0.8721122E+08  0.1975567E+01  0.4782959E+06 -0.3499745E+00
  0.7757576E+00  0.9885907E+07 -0.1149267E+01  0.4267845E+05  0.8455557E+00  0.4243314E+06 -0.5604767E+00  0.4562256E+06 -0.1778167E+00  0.8180079E+08  0.1992579E+01  0.4778749E+06 -0.4341740E+00
  0.8160606E+00  0.9098989E+07 -0.1153152E+01  0.4509492E+05  0.9999814E+00  0.1478241E+06 -0.6409562E+00  0.4135141E+06 -0.1646307E-01  0.7542527E+08  0.1988769E+01  0.4752936E+06 -0.5246943E+00
  0.8563637E+00  0.8274984E+07 -0.1177632E+01  0.4615257E+05  0.1119534E+01  0.8700549E+05  0.2395605E+01  0.3697264E+06  0.1286050E+00  0.6873091E+08  0.1964377E+01  0.4704819E+06 -0.6201432E+00
  0.8966666E+00  0.7466131E+07 -0.1221342E+01  0.4610501E+05  0.1204294E+01  0.2855747E+06  0.2303968E+01  0.3276856E+06  0.2551821E+00  0.6214762E+08  0.1920752E+01  0.4629905E+06 -0.7196931E+00
  0.9369696E+00  0.6702036E+07 -0.1282425E+01  0.4537503E+05  0.1254012E+01  0.4547638E+06  0.2200616E+01  0.2899735E+06  0.3591615E+00  0.5592186E+08  0.1859735E+01  0.4527151E+06 -0.8235435E+00
  0.9772727E+00  0.5996756E+07 -0.1358978E+01  0.4443021E+05  0.1271318E+01  0.6044172E+06  0.2090788E+01  0.2589408E+06  0.4359185E+00  0.5017217E+08  0.1783226E+01  0.4401788E+06 -0.9331142E+00
  0.1017576E+01  0.5354461E+07 -0.1449256E+01  0.4362959E+05  0.1261690E+01  0.7527138E+06  0.1977101E+01  0.2368846E+06  0.4837837E+00  0.4493535E+08  0.1692994E+01  0.4275493E+06 -0.1049936E+01
  0.1057879E+01  0.4773850E+07 -0.1551667E+01  0.4340013E+05  0.1227258E+01  0.9531664E+06  0.1867435E+01  0.2282600E+06  0.5090816E+00  0.4020216E+08  0.1590686E+01  0.4251981E+06 -0.1171690E+01
  0.1098182E+01  0.4251342E+07 -0.1664778E+01  0.4681205E+05  0.1138592E+01  0.1600307E+07  0.1824103E+01  0.2618468E+06  0.5377631E+00  0.3594702E+08  0.1477841E+01  0.5010629E+06 -0.1231448E+01
  0.1138485E+01  0.3777618E+07 -0.1787432E+01  0.3296449E+05  0.1470092E+01  0.5400026E+06 -0.1797563E+01  0.1013210E+06  0.7954037E+00  0.3205252E+08  0.1355241E+01  0.1196343E+06 -0.1931644E+01
  0.1178788E+01  0.3352790E+07 -0.1918241E+01  0.3412738E+05  0.1199794E+01  0.3283274E+06  0.1318671E+01  0.1540657E+06  0.5625278E+00  0.2859435E+08  0.1224648E+01  0.2506002E+06 -0.1848382E+01
  0.1219091E+01  0.2965490E+07 -0.2055392E+01  0.3371959E+05  0.1075025E+01  0.4907088E+06  0.1185072E+01  0.1653583E+06  0.5356805E+00  0.2543575E+08  0.1087671E+01  0.2607220E+06 -0.1980923E+01
  0.1259394E+01  0.2606816E+07 -0.2196375E+01  0.3362980E+05  0.9458882E+00  0.5546639E+06  0.1030557E+01  0.1747439E+06  0.4949524E+00  0.2251669E+08  0.9468383E+00  0.2485896E+06 -0.2145235E+01
  0.1299697E+01  0.2261487E+07 -0.2336103E+01  0.3486223E+05  0.8017357E+00  0.5829961E+06  0.8654189E+00  0.1932954E+06  0.4276934E+00  0.1971902E+08  0.8073366E+00  0.2289969E+06 -0.2365556E+01
  0.1340000E+01  0.1891912E+07 -0.2460251E+01  0.3965775E+05  0.6512765E+00  0.5931581E+06  0.6921908E+00  0.2413114E+06  0.3519339E+00  0.1675138E+08  0.6836269E+00  0.2177533E+06 -0.2642014E+01
  0.1380303E+01  0.1319816E+07 -0.2500615E+01  0.5750510E+05  0.5968465E+00  0.5926718E+06  0.5116891E+00  0.3989767E+06  0.3958462E+00  0.1222940E+08  0.6445248E+00  0.2208750E+06 -0.2922170E+01
  0.1420606E+01  0.2275328E+07  0.1880480E+01  0.2941508E+05  0.8656266E+00  0.5873170E+06  0.3289192E+00  0.2615960E+06  0.9842340E+00  0.1730765E+08 -0.1260984E+01  0.2609721E+06 -0.3026438E+01
  0.1460909E+01  0.2049002E+07  0.2870541E+01  0.3805752E+05  0.1812566E+01  0.5728173E+06  0.1375315E+00  0.3162613E+06  0.2011546E+01  0.1740159E+08 -0.2690215E+00  0.2069205E+06  0.3078866E+01
  0.1501212E+01  0.1662492E+07  0.2797690E+01  0.2131384E+05  0.1623386E+01  0.5583901E+06 -0.5695615E-01  0.1763606E+06  0.1955647E+01  0.1443238E+08 -0.3414035E+00  0.1894249E+06  0.2827451E+01
  0.1541515E+01  0.1425104E+07  0.2637361E+01  0.1590025E+05  0.1376733E+01  0.5430358E+06 -0.2525872E+00  0.1356251E+06  0.1788312E+01  0.1254842E+08 -0.5014403E+00  0.1775416E+06  0.2561595E+01
  0.1581818E+01  0.1242045E+07  0.2449208E+01  0.1441299E+05  0.1193010E+01  0.5286434E+06 -0.4445636E+00  0.1285180E+06  0.1652647E+01  0.1107481E+08 -0.6890741E+00  0.1696802E+06  0.2315633E+01
  0.1622121E+01  0.1091213E+07  0.2247331E+01  0.1629370E+05  0.1342786E+01  0.5186175E+06 -0.6195971E+00  0.1622338E+06  0.1716288E+01  0.9850935E+07 -0.8902436E+00  0.1576415E+06  0.2119766E+01
  0.1662424E+01  0.9476171E+06  0.2044306E+01  0.7141747E+04 -0.2971573E+01  0.5195905E+06 -0.7105612E+00  0.1215677E+06  0.3133908E+01  0.8666621E+07 -0.1091428E+01  0.1213227E+06  0.1981064E+01
  0.1702727E+01  0.8263671E+06  0.1818473E+01  0.3422859E+04 -0.5183210E+00  0.4496013E+06 -0.2065017E+00  0.8748630E+04  0.2931657E+01  0.7660452E+07 -0.1316658E+01  0.5689113E+05 -0.2954449E+00
  0.1743030E+01  0.7167474E+06  0.1598306E+01  0.4166517E+04 -0.2862238E+00  0.2610849E+06 -0.1951107E+01  0.1963979E+05  0.7622543E+00  0.6757640E+07 -0.1538314E+01  0.2183005E+06  0.8187034E+00
  0.1783333E+01  0.6061261E+06  0.1378895E+01  0.4645340E+04 -0.4002873E+00  0.3352602E+06 -0.1952179E+01  0.2730033E+05  0.5403324E+00  0.5852496E+07 -0.1756953E+01  0.1867221E+06  0.7877731E+00
  0.1823636E+01  0.4891923E+06  0.1171359E+01  0.4433932E+04 -0.1988303E+00  0.3411213E+06 -0.2129158E+01  0.3968497E+05  0.7055112E+00  0.4893964E+07 -0.1963812E+01  0.1609500E+06  0.6147242E+00
  0.1863939E+01  0.3271573E+06  0.9987767E+00  0.3363528E+04 -0.1944399E+01  0.3328970E+06 -0.2343290E+01  0.3418816E+05  0.3016746E+01  0.3567982E+07 -0.2131359E+01  0.1635656E+06  0.2443224E+00
  0.1904242E+01  0.2384707E+05 -0.1707199E+01  0.1162040E+05 -0.1545810E+01  0.3198376E+06 -0.2581813E+01  0.9108666E+05 -0.1889002E+01  0.7035332E+06 -0.2190389E+01  0.1613914E+06  0.9883334E-01
  0.1944546E+01  0.1029672E+07 -0.8251497E+00  0.1418257E+05 -0.6859007E+00  0.3052305E+06 -0.2831545E+01  0.1519154E+06 -0.8393743E+00  0.8491554E+07  0.2315254E+01  0.1346497E+06  0.3900432E-01
  0.1984848E+01  0.6814411E+06 -0.3667396E+00  0.1059379E+05 -0.3982065E-01  0.2916427E+06 -0.3082771E+01  0.1105862E+06 -0.1127466E+00  0.6193770E+07  0.2775174E+01  0.1086691E+06 -0.2674603E+00
  0.2025151E+01  0.5180683E+06 -0.4973639E+00  0.8321504E+04 -0.8674618E-01  0.2768720E+06  0.2955413E+01  0.8411533E+05 -0.1823293E+00  0.4925192E+07  0.2643888E+01  0.8669714E+05 -0.8574007E+00
  0.2065454E+01  0.4218583E+06 -0.7197655E+00  0.8369537E+04  0.6565708E-01  0.2614710E+06  0.2733758E+01  0.8141780E+05 -0.1227333E+00  0.4151613E+07  0.2421978E+01  0.8828351E+05 -0.1044772E+01
  0.2105757E+01  0.3475071E+06 -0.9752959E+00  0.8490457E+04  0.2106552E+00  0.2381674E+06  0.2609760E+01  0.8640192E+05 -0.9875252E-01  0.3544073E+07  0.2168503E+01  0.5556827E+05 -0.1367307E+01
  0.2146061E+01  0.2913408E+06 -0.1265199E+01  0.9224453E+04  0.6582648E+00  0.9804910E+05  0.3137113E+01  0.9045797E+05  0.3871737E+00  0.3063621E+07  0.1885691E+01  0.1069164E+06 -0.2987177E+01
  0.2186364E+01  0.2386872E+06 -0.1514962E+01  0.6698060E+04  0.1077138E+01  0.1886260E+06  0.1092762E+01  0.5114473E+05  0.8303170E+00  0.2623320E+07  0.1627978E+01  0.1444198E+06 -0.2261689E+01
  0.2226667E+01  0.1740687E+06 -0.1799252E+01  0.5614431E+04  0.1147491E+01  0.2039402E+06  0.1051949E+01  0.3903084E+05  0.5594631E+00  0.2083989E+07  0.1355974E+01  0.1134790E+06 -0.2339851E+01
  0.2266970E+01  0.9261311E+05 -0.2119832E+01  0.6227777E+04  0.1283608E+01  0.1978367E+06  0.8264740E+00  0.4643011E+05  0.5519363E+00  0.1389481E+07  0.1094858E+01  0.8868439E+05 -0.2591395E+01
  0.2307273E+01  0.8971691E+05  0.1410754E+01  0.9739416E+04  0.1889985E+01  0.1889461E+06  0.5421085E+00  0.7614124E+05  0.1143957E+01  0.2313421E+06 -0.1146325E+01  0.9430285E+05 -0.2930117E+01
  0.2347576E+01  0.5179073E+06  0.2284652E+01  0.5730826E+04 -0.2470035E+01  0.1818742E+06  0.2566755E+00  0.2975789E+05 -0.3108156E+01  0.4418132E+07 -0.8609334E+00  0.6661216E+05 -0.2873520E+01
  0.2387879E+01  0.3405728E+06  0.2661470E+01  0.2471440E+04 -0.1445153E+01  0.1719672E+06 -0.2305092E-01  0.1817245E+05 -0.1247654E+01  0.3288322E+07 -0.4822565E+00  0.4405146E+05  0.3069690E+01
  0.2428182E+01  0.2536869E+06  0.2476307E+01  0.2712046E+04 -0.8362833E+00  0.1588071E+06 -0.2859483E+00  0.2720900E+05 -0.8748546E+00  0.2602055E+07 -0.6638222E+00  0.1320677E+05  0.2649943E+01
  0.2468485E+01  0.2041649E+06  0.2199351E+01  0.3506656E+04 -0.7476817E+00  0.1395064E+06 -0.4650175E+00  0.3600749E+05 -0.8933492E+00  0.2194142E+07 -0.9384512E+00  0.1431544E+05  0.8611008E+00
  0.2508788E+01  0.1709109E+06  0.1860337E+01  0.3935989E+04 -0.1024791E+01  0.4415441E+05 -0.1424098E+00  0.4597877E+05 -0.1342087E+01  0.1903677E+07 -0.1265365E+01  0.8686141E+05 -0.4360732E-01
  0.2549091E+01  0.1426222E+06  0.1562869E+01  0.6655345E+04 -0.1076292E+01  0.1302935E+06 -0.2163633E+01  0.7557319E+05 -0.1309154E+01  0.1658157E+07 -0.1565578E+01  0.8994747E+05  0.8343039E+00
  0.2589394E+01  0.1015344E+06  0.1351178E+01  0.8749206E+04 -0.1095788E+01  0.1393015E+06 -0.2204420E+01  0.9415420E+05 -0.1275416E+01  0.1310708E+07 -0.1797940E+01  0.6328833E+05  0.7337850E+00
  0.2629697E+01  0.2469486E+05  0.9865574E+00  0.9757815E+04 -0.1071321E+01  0.1323440E+06 -0.2454566E+01  0.9533463E+05 -0.1363277E+01  0.6365611E+06 -0.2025616E+01  0.4136614E+05  0.5542946E+00
  0.2670000E+01  0.2005754E+06 -0.1511441E+01  0.8756366E+04 -0.6667635E+00  0.1244752E+06 -0.2764688E+01  0.9717686E+05 -0.1190574E+01  0.1465610E+07  0.1628139E+01  0.3624443E+05  0.4584447E+00
  0.2710303E+01  0.2629828E+06 -0.6303002E+00  0.7509445E+04 -0.2079530E+01  0.1175237E+06 -0.3090641E+01  0.7368487E+05 -0.2060825E+01  0.2500754E+07  0.2505111E+01  0.1109716E+05  0.4697690E+00
  0.2750606E+01  0.1992218E+06 -0.7087775E+00  0.1160124E+05 -0.2053770E+01  0.1080712E+06  0.2901695E+01  0.9750749E+05 -0.2271054E+01  0.2034038E+07  0.2432440E+01  0.1412223E+05  0.2334276E+01
  0.2790909E+01  0.1703143E+06 -0.9629003E+00  0.1333293E+05 -0.2181973E+01  0.9118270E+05  0.2723108E+01  0.1136120E+06 -0.2551020E+01  0.1796649E+07  0.2179312E+01  0.4418876E+05  0.2885815E+01
  0.2831212E+01  0.1527292E+06 -0.1252897E+01  0.1379625E+05 -0.2314480E+01  0.4715256E+04  0.2772231E+01  0.1136190E+06 -0.2826991E+01  0.1638684E+07  0.1885737E+01  0.9447539E+05 -0.3110867E+01
  0.2871515E+01  0.1337403E+06 -0.1509205E+01  0.1427856E+05 -0.2507489E+01  0.1012160E+06  0.8439741E+00  0.1228721E+06  0.3096318E+01  0.1467296E+07  0.1619140E+01  0.5141807E+05 -0.2144538E+01
  0.2911818E+01  0.1151543E+06 -0.1615049E+01  0.1395530E+05 -0.2852195E+01  0.1111203E+06  0.7842705E+00  0.1611197E+06  0.2582008E+01  0.1290119E+07  0.1477942E+01  0.8266874E+04  0.4503469E+00
  0.2952121E+01  0.5188331E+05 -0.1320294E+01  0.1280278E+05 -0.3127777E+01  0.1094377E+06  0.5372196E+00  0.1936232E+06  0.2278272E+01  0.6932572E+06  0.1644323E+01  0.2568153E+05  0.8354731E+00
  0.2992424E+01  0.8355082E+05  0.2395551E+01  0.1572477E+05  0.2273349E+01  0.1123216E+06  0.2657513E+00  0.3232360E+06  0.1921260E+01  0.7133895E+06 -0.7840431E+00  0.8253054E+05  0.3533988E-01
  0.3032727E+01  0.8022880E+05  0.3106146E+01  0.3302906E+05  0.2041430E+01  0.1162816E+06  0.1176544E+00  0.5141765E+06  0.1882706E+01  0.7894147E+06 -0.2042928E+00  0.1721024E+06  0.1247851E+00
  0.3073030E+01  0.2312322E+05 -0.2893192E+01  0.5151023E+05  0.2199189E+01  0.1099869E+06  0.6643546E-01  0.6946501E+06  0.2053015E+01  0.2823888E+06 -0.4894231E+00  0.2622395E+06  0.1485713E+00
  0.3113333E+01  0.2313130E+05  0.2702779E+00  0.6202766E+05  0.2292995E+01  0.1062461E+06  0.2314939E+00  0.7823236E+06  0.2167210E+01  0.3389827E+06 -0.2206478E+01  0.3800557E+06  0.1835551E+00
  0.3153636E+01  0.3145930E+05  0.9394783E-01  0.7767153E+05  0.2298186E+01  0.8877549E+05  0.6606112E+00  0.9032085E+06  0.2207901E+01  0.4140913E+06 -0.2453609E+01  0.4828827E+06  0.3604563E+00
  0.3193939E+01  0.1883926E+05 -0.7899394E+00  0.9291312E+05  0.2448037E+01  0.9025250E+05  0.1077896E+01  0.9966242E+06  0.2358348E+01  0.1798510E+06 -0.2540446E+01  0.5087002E+06  0.5025930E+00
  0.3234242E+01  0.1121334E+06 -0.2271580E+01  0.1179777E+06  0.2605104E+01  0.9797842E+05  0.1399505E+01  0.1179758E+07  0.2497975E+01  0.9505268E+06  0.6832107E+00  0.4723307E+06  0.6380470E+00
  0.3274545E+01  0.2550206E+06 -0.1424005E+01  0.9376854E+05 -0.3090145E+01  0.9729931E+05  0.1398394E+01  0.9307344E+06  0.3017741E+01  0.2452147E+07  0.1665072E+01  0.3812483E+06  0.6695157E+00
  0.3314848E+01  0.1644608E+06 -0.1264231E+01  0.6195326E+05  0.3002726E+01  0.8756002E+05  0.1205419E+01  0.6551014E+06  0.2856723E+01  0.1650966E+07  0.1839056E+01  0.2978099E+06  0.5886394E+00
  0.3355152E+01  0.1197896E+06 -0.1589666E+01  0.5842525E+05  0.2775334E+01  0.8148195E+05  0.4060213E+00  0.6211826E+06  0.2693964E+01  0.1254111E+07  0.1517102E+01  0.2282021E+06  0.2968633E+00
  0.3395455E+01  0.8408977E+05 -0.1956004E+01  0.5597130E+05  0.2662170E+01  0.2208481E+06  0.3262604E+00  0.5898872E+06  0.2626085E+01  0.9336528E+06  0.1148732E+01  0.3074475E+06  0.1893101E+00
  0.3435757E+01  0.3540571E+05 -0.2750739E+01  0.5254152E+05  0.2433824E+01  0.1850543E+06  0.5213653E+00  0.5442653E+06  0.2441344E+01  0.4748553E+06  0.5040301E+00  0.2467105E+06  0.3663667E+00
  0.3476061E+01  0.9375505E+05  0.1414345E+01  0.6108568E+05  0.2353925E+01  0.1507105E+06  0.3626510E+00  0.6170616E+06  0.2373391E+01  0.8043818E+06 -0.1640003E+01  0.1922714E+06  0.3916489E+00
  0.3516364E+01  0.3041181E+06  0.1901440E+01  0.3231265E+05  0.2731038E+01  0.1219299E+06  0.1217619E+00  0.3453556E+06  0.2830034E+01  0.2970920E+07 -0.1240386E+01  0.1548373E+06  0.3855365E+00
  0.3556667E+01  0.2423842E+06  0.2137405E+01  0.4337820E+05  0.1561475E+01  0.9453273E+05 -0.9410094E-01  0.3755253E+06  0.1577333E+01  0.2457685E+07 -0.1007226E+01  0.1355411E+06  0.3049169E+00
  0.3596970E+01  0.1909932E+06  0.1968298E+01  0.5614331E+05  0.1627808E+01  0.4821001E+05 -0.1016891E+00  0.4975933E+06  0.1588030E+01  0.1974744E+07 -0.1178912E+01  0.1212969E+06  0.3727363E+00
  0.3637273E+01  0.1511529E+06  0.1761320E+01  0.5157077E+05  0.1739788E+01  0.4621317E+05 -0.2500791E+01  0.4582495E+06  0.1670157E+01  0.1582271E+07 -0.1395591E+01  0.9243777E+05  0.3802989E+00
  0.3677576E+01  0.9976695E+05  0.1769877E+01  0.3724030E+05  0.1773011E+01  0.6799838E+05 -0.2484339E+01  0.3211780E+06  0.1669168E+01  0.1075563E+07 -0.1444210E+01  0.6015527E+05  0.7054565E+00
  0.3717879E+01  0.4703259E+05 -0.2881918E+01  0.1722626E+05  0.1863243E+01  0.7684678E+05 -0.2780737E+01  0.1304518E+06  0.1578537E+01  0.3723334E+06 -0.4188668E-01  0.3496849E+05  0.2726378E+01
  0.3758182E+01  0.1405894E+06 -0.1276686E+01  0.2138615E+05 -0.2412421E+00  0.7803565E+05 -0.2908566E+01  0.2441074E+06 -0.3170907E+00  0.1316949E+07  0.1898540E+01  0.1052016E+06 -0.2473944E+01
  0.3798485E+01  0.1371905E+06 -0.1132992E+01  0.2497131E+05  0.5867067E-01  0.6051053E+05 -0.2984124E+01  0.2685889E+06 -0.3825976E-01  0.1362915E+07  0.2034339E+01  0.1451787E+06 -0.2215719E+01
  0.3838788E+01  0.1188479E+06 -0.1263299E+01  0.1960643E+05 -0.5348142E+00  0.2643554E+05 -0.2644356E+01  0.2129282E+06 -0.5336361E+00  0.1218641E+07  0.1902607E+01  0.1410308E+06 -0.2070545E+01
  0.3879091E+01  0.8923566E+05 -0.1427719E+01  0.3024554E+05 -0.1024335E+01  0.2429391E+05  0.6883878E+00  0.2856164E+06 -0.9838117E+00  0.9358251E+06  0.1732318E+01  0.9726241E+05 -0.2264046E+01
  0.3919394E+01  0.5086421E+05 -0.1328833E+01  0.3828645E+05 -0.1067923E+01  0.3279225E+05  0.7422055E+00  0.3303160E+06 -0.1080873E+01  0.5675614E+06  0.1752574E+01  0.1007263E+06 -0.2745015E+01
  0.3959697E+01  0.4562538E+05  0.1333257E+01  0.4217132E+05 -0.1124006E+01  0.2533863E+05  0.4335563E+00  0.3617702E+06 -0.1193874E+01  0.3540517E+06 -0.1820651E+01  0.8868650E+05 -0.2807470E+01
  0.4000000E+01  0.7624740E+05  0.2044113E+01  0.3732303E+05 -0.1002508E+01  0.2513445E+05 -0.3987432E+00  0.3207574E+06 -0.1060388E+01  0.7217290E+06 -0.1042207E+01  0.4439788E+05 -0.2407994E+01
