VARIABLES="Frequency (rad/s)" "|Fx| (N/m)" "|Fy| (N/m)" "|Fz| (N/m)" "|Cx| (N)" "|Cy| (N)" "|Cz| (N)" "ang(Fx) (°)" "ang(Fy) (°)" "ang(Fz) (°)" "ang(Cx) (°)" "ang(Cy) (°)" "ang(Cz) (°)"
Zone t="Corps  1"
Zone t="Excitation force - beta =   0.000 deg",I=   100,F=POINT
 0.0100  0.416780E+04  0.136879E+01  0.992070E+07  0.156923E+03  0.340459E+05  0.258635E+03  -90.00  -14.50   -0.00  -89.08   90.00    1.62
 0.0503  0.105241E+06  0.987797E+01  0.983098E+07  0.396163E+04  0.859728E+06  0.648939E+04  -90.00  -59.38   -0.00  -87.76   90.00    1.66
 0.0906  0.339790E+06  0.320342E+02  0.962192E+07  0.127677E+05  0.277604E+07  0.208242E+05  -90.00  -55.57   -0.02  -87.70   90.00    1.72
 0.1309  0.704051E+06  0.645676E+02  0.929765E+07  0.263870E+05  0.575285E+07  0.427265E+05  -90.00  -53.87   -0.09  -87.60   90.00    1.78
 0.1712  0.119254E+07  0.105450E+03  0.886751E+07  0.445657E+05  0.974630E+07  0.713557E+05  -89.99  -53.64   -0.24  -87.51   90.01    1.79
 0.2115  0.179865E+07  0.159427E+03  0.834599E+07  0.670308E+05  0.147036E+08  0.105628E+06  -89.95  -52.41   -0.54  -87.35   90.05    1.73
 0.2518  0.251511E+07  0.232856E+03  0.775154E+07  0.935745E+05  0.205670E+08  0.144281E+06  -89.86  -54.11   -1.01  -87.13   90.14    1.54
 0.2921  0.333439E+07  0.357600E+03  0.710450E+07  0.124139E+06  0.272768E+08  0.185934E+06  -89.66  -56.70   -1.71  -86.74   90.34    1.21
 0.3324  0.424814E+07  0.593341E+03  0.642516E+07  0.158872E+06  0.347670E+08  0.229204E+06  -89.30  -58.79   -2.64  -86.06   90.70    0.72
 0.3727  0.524572E+07  0.104253E+04  0.573220E+07  0.198147E+06  0.429530E+08  0.272701E+06  -88.68  -58.53   -3.83  -84.93   91.32    0.05
 0.4130  0.631070E+07  0.187050E+04  0.504187E+07  0.242478E+06  0.517035E+08  0.315012E+06  -87.71  -55.06   -5.30  -83.09   92.29   -0.80
 0.4533  0.741527E+07  0.331354E+04  0.436756E+07  0.292176E+06  0.607935E+08  0.354686E+06  -86.28  -48.75   -7.03  -80.21   93.73   -1.83
 0.4936  0.851289E+07  0.566810E+04  0.372010E+07  0.346590E+06  0.698447E+08  0.390246E+06  -84.28  -40.01   -9.05  -75.92   95.72   -3.08
 0.5339  0.953199E+07  0.923694E+04  0.310799E+07  0.402976E+06  0.782723E+08  0.420316E+06  -81.70  -29.08  -11.35  -69.94   98.31   -4.61
 0.5742  0.103765E+08  0.141549E+05  0.253789E+07  0.455544E+06  0.852878E+08  0.443867E+06  -78.59  -16.44  -13.96  -62.13  101.42   -6.52
 0.6145  0.109442E+08  0.202627E+05  0.201453E+07  0.496215E+06  0.900499E+08  0.460491E+06  -75.17   -2.65  -16.88  -52.68  104.84   -8.95
 0.6548  0.111609E+08  0.269408E+05  0.154090E+07  0.517022E+06  0.919416E+08  0.470850E+06  -71.79   11.55  -20.15  -42.10  108.21  -12.00
 0.6952  0.110137E+08  0.333551E+05  0.111844E+07  0.514838E+06  0.908494E+08  0.476287E+06  -68.88   25.24  -23.76  -31.09  111.13  -15.72
 0.7355  0.105570E+08  0.387307E+05  0.746811E+06  0.492262E+06  0.872112E+08  0.478296E+06  -66.82   37.70  -27.75  -20.31  113.19  -20.05
 0.7758  0.988591E+07  0.426784E+05  0.424331E+06  0.456226E+06  0.818008E+08  0.477875E+06  -65.85   48.45  -32.11  -10.19  114.17  -24.88
 0.8161  0.909899E+07  0.450949E+05  0.147824E+06  0.413514E+06  0.754253E+08  0.475294E+06  -66.07   57.29  -36.72   -0.94  113.95  -30.06
 0.8564  0.827498E+07  0.461526E+05  0.870055E+05  0.369726E+06  0.687309E+08  0.470482E+06  -67.47   64.14  137.26    7.37  112.55  -35.53
 0.8967  0.746613E+07  0.461050E+05  0.285575E+06  0.327686E+06  0.621476E+08  0.462990E+06  -69.98   69.00  132.01   14.62  110.05  -41.24
 0.9370  0.670204E+07  0.453750E+05  0.454764E+06  0.289973E+06  0.559219E+08  0.452715E+06  -73.48   71.85  126.09   20.58  106.55  -47.19
 0.9773  0.599676E+07  0.444302E+05  0.604417E+06  0.258941E+06  0.501722E+08  0.440179E+06  -77.86   72.84  119.79   24.98  102.17  -53.46
 1.0176  0.535446E+07  0.436296E+05  0.752714E+06  0.236885E+06  0.449353E+08  0.427549E+06  -83.04   72.29  113.28   27.72   97.00  -60.16
 1.0579  0.477385E+07  0.434001E+05  0.953166E+06  0.228260E+06  0.402022E+08  0.425198E+06  -88.90   70.32  107.00   29.17   91.14  -67.13
 1.0982  0.425134E+07  0.468121E+05  0.160031E+07  0.261847E+06  0.359470E+08  0.501063E+06  -95.38   65.24  104.51   30.81   84.67  -70.56
 1.1385  0.377762E+07  0.329645E+05  0.540003E+06  0.101321E+06  0.320525E+08  0.119634E+06 -102.41   84.23 -102.99   45.57   77.65 -110.68
 1.1788  0.335279E+07  0.341274E+05  0.328327E+06  0.154066E+06  0.285943E+08  0.250600E+06 -109.91   68.74   75.55   32.23   70.17 -105.90
 1.2191  0.296549E+07  0.337196E+05  0.490709E+06  0.165358E+06  0.254357E+08  0.260722E+06 -117.77   61.59   67.90   30.69   62.32 -113.50
 1.2594  0.260682E+07  0.336298E+05  0.554664E+06  0.174744E+06  0.225167E+08  0.248590E+06 -125.84   54.20   59.05   28.36   54.25 -122.91
 1.2997  0.226149E+07  0.348622E+05  0.582996E+06  0.193295E+06  0.197190E+08  0.228997E+06 -133.85   45.94   49.58   24.51   46.26 -135.54
 1.3400  0.189191E+07  0.396577E+05  0.593158E+06  0.241311E+06  0.167514E+08  0.217753E+06 -140.96   37.32   39.66   20.16   39.17 -151.38
 1.3803  0.131982E+07  0.575051E+05  0.592672E+06  0.398977E+06  0.122294E+08  0.220875E+06 -143.27   34.20   29.32   22.68   36.93 -167.43
 1.4206  0.227533E+07  0.294151E+05  0.587317E+06  0.261596E+06  0.173076E+08  0.260972E+06  107.74   49.60   18.85   56.39  -72.25 -173.40
 1.4609  0.204900E+07  0.380575E+05  0.572817E+06  0.316261E+06  0.174016E+08  0.206921E+06  164.47  103.85    7.88  115.25  -15.41  176.41
 1.5012  0.166249E+07  0.213138E+05  0.558390E+06  0.176361E+06  0.144324E+08  0.189425E+06  160.30   93.01   -3.26  112.05  -19.56  162.00
 1.5415  0.142510E+07  0.159003E+05  0.543036E+06  0.135625E+06  0.125484E+08  0.177542E+06  151.11   78.88  -14.47  102.46  -28.73  146.77
 1.5818  0.124204E+07  0.144130E+05  0.528643E+06  0.128518E+06  0.110748E+08  0.169680E+06  140.33   68.35  -25.47   94.69  -39.48  132.68
 1.6221  0.109121E+07  0.162937E+05  0.518618E+06  0.162234E+06  0.985094E+07  0.157642E+06  128.76   76.94  -35.50   98.34  -51.01  121.45
 1.6624  0.947617E+06  0.714175E+04  0.519591E+06  0.121568E+06  0.866662E+07  0.121323E+06  117.13 -170.26  -40.71  179.56  -62.53  113.51
 1.7027  0.826367E+06  0.342286E+04  0.449601E+06  0.874863E+04  0.766045E+07  0.568911E+05  104.19  -29.70  -11.83  167.97  -75.44  -16.93
 1.7430  0.716747E+06  0.416652E+04  0.261085E+06  0.196398E+05  0.675764E+07  0.218300E+06   91.58  -16.40 -111.79   43.67  -88.14   46.91
 1.7833  0.606126E+06  0.464534E+04  0.335260E+06  0.273003E+05  0.585250E+07  0.186722E+06   79.00  -22.93 -111.85   30.96 -100.67   45.14
 1.8236  0.489192E+06  0.443393E+04  0.341121E+06  0.396850E+05  0.489396E+07  0.160950E+06   67.11  -11.39 -121.99   40.42 -112.52   35.22
 1.8639  0.327157E+06  0.336353E+04  0.332897E+06  0.341882E+05  0.356798E+07  0.163566E+06   57.23 -111.41 -134.26  172.85 -122.12   14.00
 1.9042  0.238471E+05  0.116204E+05  0.319838E+06  0.910867E+05  0.703533E+06  0.161391E+06  -97.82  -88.57 -147.93 -108.23 -125.50    5.66
 1.9445  0.102967E+07  0.141826E+05  0.305231E+06  0.151915E+06  0.849155E+07  0.134650E+06  -47.28  -39.30 -162.24  -48.09  132.65    2.23
 1.9848  0.681441E+06  0.105938E+05  0.291643E+06  0.110586E+06  0.619377E+07  0.108669E+06  -21.01   -2.28 -176.63   -6.46  159.01  -15.32
 2.0252  0.518068E+06  0.832150E+04  0.276872E+06  0.841153E+05  0.492519E+07  0.866971E+05  -28.50   -4.97  169.33  -10.45  151.48  -49.13
 2.0655  0.421858E+06  0.836954E+04  0.261471E+06  0.814178E+05  0.415161E+07  0.882835E+05  -41.24    3.76  156.63   -7.03  138.77  -59.86
 2.1058  0.347507E+06  0.849046E+04  0.238167E+06  0.864019E+05  0.354407E+07  0.555683E+05  -55.88   12.07  149.53   -5.66  124.25  -78.34
 2.1461  0.291341E+06  0.922445E+04  0.980491E+05  0.904580E+05  0.306362E+07  0.106916E+06  -72.49   37.72  179.74   22.18  108.04 -171.15
 2.1864  0.238687E+06  0.669806E+04  0.188626E+06  0.511447E+05  0.262332E+07  0.144420E+06  -86.80   61.72   62.61   47.57   93.28 -129.59
 2.2267  0.174069E+06  0.561443E+04  0.203940E+06  0.390308E+05  0.208399E+07  0.113479E+06 -103.09   65.75   60.27   32.05   77.69 -134.06
 2.2670  0.926131E+05  0.622778E+04  0.197837E+06  0.464301E+05  0.138948E+07  0.886844E+05 -121.46   73.55   47.35   31.62   62.73 -148.48
 2.3073  0.897169E+05  0.973942E+04  0.188946E+06  0.761412E+05  0.231342E+06  0.943029E+05   80.83  108.29   31.06   65.54  -65.68 -167.88
 2.3476  0.517907E+06  0.573083E+04  0.181874E+06  0.297579E+05  0.441813E+07  0.666122E+05  130.90 -141.52   14.71 -178.08  -49.33 -164.64
 2.3879  0.340573E+06  0.247144E+04  0.171967E+06  0.181725E+05  0.328832E+07  0.440515E+05  152.49  -82.80   -1.32  -71.49  -27.63  175.88
 2.4282  0.253687E+06  0.271205E+04  0.158807E+06  0.272090E+05  0.260205E+07  0.132068E+05  141.88  -47.92  -16.38  -50.13  -38.03  151.83
 2.4685  0.204165E+06  0.350666E+04  0.139506E+06  0.360075E+05  0.219414E+07  0.143154E+05  126.01  -42.84  -26.64  -51.19  -53.77   49.34
 2.5088  0.170911E+06  0.393599E+04  0.441544E+05  0.459788E+05  0.190368E+07  0.868614E+05  106.59  -58.72   -8.16  -76.90  -72.50   -2.50
 2.5491  0.142622E+06  0.665534E+04  0.130294E+06  0.755732E+05  0.165816E+07  0.899475E+05   89.55  -61.67 -123.97  -75.01  -89.70   47.80
 2.5894  0.101534E+06  0.874921E+04  0.139301E+06  0.941542E+05  0.131071E+07  0.632883E+05   77.42  -62.78 -126.30  -73.08 -103.01   42.04
 2.6297  0.246949E+05  0.975782E+04  0.132344E+06  0.953346E+05  0.636561E+06  0.413661E+05   56.53  -61.38 -140.64  -78.11 -116.06   31.76
 2.6700  0.200575E+06  0.875637E+04  0.124475E+06  0.971769E+05  0.146561E+07  0.362444E+05  -86.60  -38.20 -158.40  -68.21   93.29   26.27
 2.7103  0.262983E+06  0.750944E+04  0.117524E+06  0.736849E+05  0.250075E+07  0.110972E+05  -36.11 -119.15 -177.08 -118.08  143.53   26.92
 2.7506  0.199222E+06  0.116012E+05  0.108071E+06  0.975075E+05  0.203404E+07  0.141222E+05  -40.61 -117.67  166.25 -130.12  139.37  133.74
 2.7909  0.170314E+06  0.133329E+05  0.911827E+05  0.113612E+06  0.179665E+07  0.441888E+05  -55.17 -125.02  156.02 -146.16  124.87  165.34
 2.8312  0.152729E+06  0.137963E+05  0.471526E+04  0.113619E+06  0.163868E+07  0.944754E+05  -71.79 -132.61  158.84 -161.97  108.04 -178.24
 2.8715  0.133740E+06  0.142786E+05  0.101216E+06  0.122872E+06  0.146730E+07  0.514181E+05  -86.47 -143.67   48.36  177.41   92.77 -122.87
 2.9118  0.115154E+06  0.139553E+05  0.111120E+06  0.161120E+06  0.129012E+07  0.826687E+04  -92.54 -163.42   44.94  147.94   84.68   25.80
 2.9521  0.518833E+05  0.128028E+05  0.109438E+06  0.193623E+06  0.693257E+06  0.256815E+05  -75.65 -179.21   30.78  130.54   94.21   47.87
 2.9924  0.835508E+05  0.157248E+05  0.112322E+06  0.323236E+06  0.713390E+06  0.825305E+05  137.25  130.25   15.23  110.08  -44.92    2.02
 3.0327  0.802288E+05  0.330291E+05  0.116282E+06  0.514177E+06  0.789415E+06  0.172102E+06  177.97  116.97    6.74  107.87  -11.71    7.15
 3.0730  0.231232E+05  0.515102E+05  0.109987E+06  0.694650E+06  0.282389E+06  0.262240E+06 -165.77  126.00    3.81  117.63  -28.04    8.51
 3.1133  0.231313E+05  0.620277E+05  0.106246E+06  0.782324E+06  0.338983E+06  0.380056E+06   15.49  131.38   13.26  124.17 -126.42   10.52
 3.1536  0.314593E+05  0.776715E+05  0.887755E+05  0.903208E+06  0.414091E+06  0.482883E+06    5.38  131.68   37.85  126.50 -140.58   20.65
 3.1939  0.188393E+05  0.929131E+05  0.902525E+05  0.996624E+06  0.179851E+06  0.508700E+06  -45.26  140.26   61.76  135.12 -145.56   28.80
 3.2342  0.112133E+06  0.117978E+06  0.979784E+05  0.117976E+07  0.950527E+06  0.472331E+06 -130.15  149.26   80.19  143.12   39.15   36.56
 3.2745  0.255021E+06  0.937685E+05  0.972993E+05  0.930734E+06  0.245215E+07  0.381248E+06  -81.59 -177.05   80.12  172.90   95.40   38.36
 3.3148  0.164461E+06  0.619533E+05  0.875600E+05  0.655101E+06  0.165097E+07  0.297810E+06  -72.44  172.04   69.07  163.68  105.37   33.73
 3.3552  0.119790E+06  0.584252E+05  0.814820E+05  0.621183E+06  0.125411E+07  0.228202E+06  -91.08  159.01   23.26  154.35   86.92   17.01
 3.3955  0.840898E+05  0.559713E+05  0.220848E+06  0.589887E+06  0.933653E+06  0.307447E+06 -112.07  152.53   18.69  150.46   65.82   10.85
 3.4358  0.354057E+05  0.525415E+05  0.185054E+06  0.544265E+06  0.474855E+06  0.246711E+06 -157.61  139.45   29.87  139.88   28.88   20.99
 3.4761  0.937550E+05  0.610857E+05  0.150711E+06  0.617062E+06  0.804382E+06  0.192271E+06   81.04  134.87   20.78  135.99  -93.97   22.44
 3.5164  0.304118E+06  0.323127E+05  0.121930E+06  0.345356E+06  0.297092E+07  0.154837E+06  108.94  156.48    6.98  162.15  -71.07   22.09
 3.5567  0.242384E+06  0.433782E+05  0.945327E+05  0.375525E+06  0.245769E+07  0.135541E+06  122.46   89.47   -5.39   90.37  -57.71   17.47
 3.5970  0.190993E+06  0.561433E+05  0.482100E+05  0.497593E+06  0.197474E+07  0.121297E+06  112.78   93.27   -5.83   90.99  -67.55   21.36
 3.6373  0.151153E+06  0.515708E+05  0.462132E+05  0.458250E+06  0.158227E+07  0.924378E+05  100.92   99.68 -143.28   95.69  -79.96   21.79
 3.6776  0.997669E+05  0.372403E+05  0.679984E+05  0.321178E+06  0.107556E+07  0.601553E+05  101.41  101.59 -142.34   95.64  -82.75   40.42
 3.7179  0.470326E+05  0.172263E+05  0.768468E+05  0.130452E+06  0.372333E+06  0.349685E+05 -165.12  106.76 -159.32   90.44   -2.40  156.21
 3.7582  0.140589E+06  0.213862E+05  0.780356E+05  0.244107E+06  0.131695E+07  0.105202E+06  -73.15  -13.82 -166.65  -18.17  108.78 -141.75
 3.7985  0.137190E+06  0.249713E+05  0.605105E+05  0.268589E+06  0.136291E+07  0.145179E+06  -64.92    3.36 -170.98   -2.19  116.56 -126.95
 3.8388  0.118848E+06  0.196064E+05  0.264355E+05  0.212928E+06  0.121864E+07  0.141031E+06  -72.38  -30.64 -151.51  -30.58  109.01 -118.63
 3.8791  0.892357E+05  0.302455E+05  0.242939E+05  0.285616E+06  0.935825E+06  0.972624E+05  -81.80  -58.69   39.44  -56.37   99.25 -129.72
 3.9194  0.508642E+05  0.382864E+05  0.327923E+05  0.330316E+06  0.567561E+06  0.100726E+06  -76.14  -61.19   42.53  -61.93  100.42 -157.28
 3.9597  0.456254E+05  0.421713E+05  0.253386E+05  0.361770E+06  0.354052E+06  0.886865E+05   76.39  -64.40   24.84  -68.40 -104.32 -160.86
 4.0000  0.762474E+05  0.373230E+05  0.251345E+05  0.320757E+06  0.721729E+06  0.443979E+05  117.12  -57.44  -22.85  -60.76  -59.71 -137.97
