VARIABLES="w (rad/s)"
"abs(F   1   1)" "angle(F   1   1)"
"abs(F   1   2)" "angle(F   1   2)"
"abs(F   1   3)" "angle(F   1   3)"
"abs(F   1   4)" "angle(F   1   4)"
"abs(F   1   5)" "angle(F   1   5)"
"abs(F   1   6)" "angle(F   1   6)"
Zone t="FKforce - beta =   0.000",I=   100,F=POINT
  0.1000000E-01  0.2528241E+04 -0.1570778E+01  0.1093750E+01  0.9050639E-03  0.9921856E+07 -0.1345660E-11  0.9880864E+02 -0.1577122E+01  0.2063020E+05  0.1570821E+01  0.1987754E+03  0.1598262E-01
  0.5030303E-01  0.6379502E+05 -0.1570798E+01  0.1023754E+01  0.2462885E+01  0.9860564E+07 -0.5284562E-09  0.2487987E+04 -0.1540597E+01  0.5205762E+06  0.1570762E+01  0.4988687E+04  0.1640839E-01
  0.9060606E-01  0.2056164E+06 -0.1570797E+01  0.6764215E+01  0.1671449E+01  0.9718489E+07 -0.5184399E-08  0.7971812E+04 -0.1539148E+01  0.1677972E+07  0.1570764E+01  0.1606518E+05  0.1721510E-01
  0.1309091E+00  0.4247992E+06 -0.1570797E+01  0.2902155E+02  0.1595834E+01  0.9498356E+07 -0.2116037E-07  0.1631742E+05 -0.1536831E+01  0.3467031E+07  0.1570768E+01  0.3316091E+05  0.1847914E-01
  0.1712121E+00  0.7163991E+06 -0.1570797E+01  0.8377441E+02  0.1610907E+01  0.9204377E+07 -0.6007778E-07  0.2717022E+05 -0.1534964E+01  0.5847808E+07  0.1570772E+01  0.5585475E+05  0.2020903E-01
  0.2115152E+00  0.1073820E+07 -0.1570797E+01  0.1915745E+03  0.1586212E+01  0.8842155E+07 -0.1334163E-06  0.4007321E+05 -0.1532142E+01  0.8767021E+07  0.1570777E+01  0.8357698E+05  0.2241354E-01
  0.2518182E+00  0.1488949E+07 -0.1570798E+01  0.3767006E+03  0.1594504E+01  0.8418551E+07 -0.2496927E-06  0.5448367E+05 -0.1529658E+01  0.1215907E+08  0.1570783E+01  0.1156162E+06  0.2510383E-01
  0.2921212E+00  0.1952312E+07 -0.1570799E+01  0.6650261E+03  0.1597984E+01  0.7941512E+07 -0.4209241E-06  0.6980345E+05 -0.1526427E+01  0.1594742E+08  0.1570791E+01  0.1511300E+06  0.2829604E-01
  0.3324242E+00  0.2453279E+07 -0.1570799E+01  0.1082826E+04  0.1601602E+01  0.7419904E+07 -0.6197699E-06  0.8540299E+05 -0.1522531E+01  0.2004602E+08  0.1570799E+01  0.1891504E+06  0.3201281E-01
  0.3727273E+00  0.2980267E+07 -0.1570801E+01  0.1655214E+04  0.1606553E+01  0.6863292E+07 -0.8488888E-06  0.1006438E+06 -0.1518305E+01  0.2436116E+08  0.1570808E+01  0.2286014E+06  0.3628491E-01
  0.4130303E+00  0.3520981E+07 -0.1570803E+01  0.2403634E+04  0.1610395E+01  0.6281732E+07 -0.1015314E-05  0.1149181E+06 -0.1513573E+01  0.2879327E+08  0.1570818E+01  0.2683162E+06  0.4115411E-01
  0.4533333E+00  0.4062674E+07 -0.1570805E+01  0.3345253E+04  0.1614901E+01  0.5685502E+07 -0.1037538E-05  0.1276632E+06 -0.1508319E+01  0.3323897E+08  0.1570829E+01  0.3070573E+06  0.4667781E-01
  0.4936364E+00  0.4592400E+07 -0.1570808E+01  0.4490661E+04  0.1621332E+01  0.5084914E+07 -0.6991615E-06  0.1383861E+06 -0.1502448E+01  0.3759322E+08  0.1570841E+01  0.3435459E+06  0.5293138E-01
  0.5339394E+00  0.5097298E+07 -0.1570812E+01  0.5841607E+04  0.1626619E+01  0.4490026E+07  0.2693687E-06  0.1466858E+06 -0.1496294E+01  0.4175147E+08  0.1570853E+01  0.3764900E+06  0.6001739E-01
  0.5742424E+00  0.5564860E+07 -0.1570816E+01  0.7392624E+04  0.1633469E+01  0.3910432E+07  0.2281557E-05  0.1522691E+06 -0.1489461E+01  0.4561188E+08  0.1570865E+01  0.4046180E+06  0.6807405E-01
  0.6145454E+00  0.5983222E+07 -0.1570822E+01  0.9126438E+04  0.1640474E+01  0.3355035E+07  0.6023189E-05  0.1549462E+06 -0.1482156E+01  0.4907758E+08  0.1570877E+01  0.4267233E+06  0.7728799E-01
  0.6548485E+00  0.6341416E+07 -0.1570830E+01  0.1101619E+05  0.1647974E+01  0.2831837E+07  0.1251569E-04  0.1546492E+06 -0.1474535E+01  0.5205878E+08  0.1570889E+01  0.4417038E+06  0.8791646E-01
  0.6951515E+00  0.6629641E+07 -0.1570840E+01  0.1302378E+05  0.1656076E+01  0.2347761E+07  0.2309755E-04  0.1514258E+06 -0.1466547E+01  0.5447486E+08  0.1570901E+01  0.4486128E+06  0.1003174E+00
  0.7354546E+00  0.6839520E+07 -0.1570852E+01  0.1510195E+05  0.1664753E+01  0.1908496E+07  0.3975133E-04  0.1454337E+06 -0.1458205E+01  0.5625642E+08  0.1570912E+01  0.4467027E+06  0.1150004E+00
  0.7757576E+00  0.6964310E+07 -0.1570867E+01  0.1719354E+05  0.1674034E+01  0.1518361E+07  0.6524689E-04  0.1369222E+06 -0.1449886E+01  0.5734702E+08  0.1570921E+01  0.4354829E+06  0.1327110E+00
  0.8160606E+00  0.6999124E+07 -0.1570886E+01  0.1923385E+05  0.1684131E+01  0.1180234E+07  0.1036730E-03  0.1262278E+06 -0.1441926E+01  0.5770500E+08  0.1570929E+01  0.4147628E+06  0.1545765E+00
  0.8563637E+00  0.6941100E+07 -0.1570909E+01  0.2115225E+05  0.1694967E+01  0.8954898E+06  0.1594427E-03  0.1137533E+06 -0.1434577E+01  0.5730474E+08  0.1570934E+01  0.3847105E+06  0.1823781E+00
  0.8966666E+00  0.6789530E+07 -0.1570939E+01  0.2287483E+05  0.1706629E+01  0.6639992E+06  0.2371049E-03  0.9995516E+05 -0.1428611E+01  0.5613796E+08  0.1570936E+01  0.3459045E+06  0.2190879E+00
  0.9369696E+00  0.6545998E+07 -0.1570976E+01  0.2432776E+05  0.1719189E+01  0.4841630E+06  0.3362601E-03  0.8530759E+05 -0.1425291E+01  0.5421457E+08  0.1570933E+01  0.2994108E+06  0.2700238E+00
  0.9772727E+00  0.6214412E+07 -0.1571023E+01  0.2544067E+05  0.1732759E+01  0.3529922E+06  0.4396343E-03  0.7030495E+05 -0.1426490E+01  0.5156333E+08  0.1570924E+01  0.2469193E+06  0.3455972E+00
  0.1017576E+01  0.5800998E+07 -0.1571082E+01  0.2614974E+05  0.1747464E+01  0.2662358E+06  0.4922541E-03  0.5542537E+05 -0.1436051E+01  0.4823179E+08  0.1570907E+01  0.1911082E+06  0.4686368E+00
  0.1057879E+01  0.5314288E+07 -0.1571157E+01  0.2640167E+05  0.1763438E+01  0.2185418E+06  0.3985915E-03  0.4113697E+05 -0.1461916E+01  0.4428613E+08  0.1570879E+01  0.1368565E+06  0.6956598E+00
  0.1098182E+01  0.4764942E+07 -0.1571253E+01  0.2615804E+05  0.1780853E+01  0.2036673E+06  0.1029271E-03  0.2790259E+05 -0.1523633E+01  0.3981030E+08  0.1570836E+01  0.9563877E+05  0.1159765E+01
  0.1138485E+01  0.4165608E+07 -0.1571378E+01  0.2539782E+05  0.1799871E+01  0.2147178E+06 -0.3211996E-03  0.1628361E+05 -0.1685882E+01  0.3490472E+08  0.1570774E+01  0.9039230E+05  0.1880616E+01
  0.1178788E+01  0.3530630E+07 -0.1571543E+01  0.2411996E+05  0.1820724E+01  0.2444158E+06 -0.7453579E-03  0.7785897E+04 -0.2252937E+01  0.2968426E+08  0.1570682E+01  0.1221080E+06  0.2395535E+01
  0.1219091E+01  0.2875702E+07 -0.1571769E+01  0.2234636E+05  0.1843649E+01  0.2853913E+06 -0.1111885E-02  0.7971181E+04  0.2839064E+01  0.2427560E+08  0.1570546E+01  0.1651222E+06  0.2649466E+01
  0.1259394E+01  0.2217460E+07 -0.1572098E+01  0.2012044E+05  0.1868900E+01  0.3304821E+06 -0.1422984E-02  0.1329450E+05  0.2396431E+01  0.1881419E+08  0.1570335E+01  0.2055027E+06  0.2786058E+01
  0.1299697E+01  0.1572970E+07 -0.1572626E+01  0.1750835E+05  0.1896751E+01  0.3730340E+06 -0.1703427E-02  0.1785066E+05  0.2248945E+01  0.1344031E+08  0.1569977E+01  0.2374915E+06  0.2870901E+01
  0.1340000E+01  0.9591750E+06 -0.1573663E+01  0.1459553E+05  0.1927387E+01  0.4071896E+06 -0.1977317E-02  0.2075150E+05  0.2170438E+01  0.8294568E+07  0.1569247E+01  0.2580593E+06  0.2930462E+01
  0.1380303E+01  0.3922791E+06 -0.1577124E+01  0.1148224E+05  0.1960892E+01  0.4281477E+06 -0.2265814E-02  0.2192118E+05  0.2104871E+01  0.3513096E+07  0.1566813E+01  0.2654823E+06  0.2977115E+01
  0.1420606E+01  0.1129249E+06  0.1589040E+01  0.8279628E+04  0.1996480E+01  0.4323837E+06 -0.2589684E-02  0.2151001E+05  0.2024511E+01  0.7778674E+06 -0.1552498E+01  0.2590173E+06  0.3017966E+01
  0.1460909E+01  0.5435779E+06  0.1573510E+01  0.5100465E+04  0.2030639E+01  0.4178134E+06 -0.2974868E-02  0.1985229E+05  0.1902877E+01  0.4466676E+07 -0.1567797E+01  0.2388520E+06  0.3058534E+01
  0.1501212E+01  0.8896078E+06  0.1571615E+01  0.2055969E+04  0.2036064E+01  0.3838888E+06 -0.3460627E-02  0.1758088E+05  0.1701816E+01  0.7462948E+07 -0.1569272E+01  0.2061195E+06  0.3105365E+01
  0.1541515E+01  0.1144094E+07  0.1570650E+01  0.7881298E+03 -0.7631132E+00  0.3316133E+06 -0.4119252E-02  0.1584809E+05  0.1380075E+01  0.9701328E+07 -0.1569960E+01  0.1629381E+06 -0.3112691E+01
  0.1581818E+01  0.1303812E+07  0.1569887E+01  0.3293985E+04 -0.8539137E+00  0.2634688E+06 -0.5112172E-02  0.1626288E+05  0.9649633E+00  0.1114624E+08 -0.1570468E+01  0.1126116E+06 -0.2996454E+01
  0.1622121E+01  0.1369537E+07  0.1569125E+01  0.5457046E+04 -0.8000904E+00  0.1832519E+06 -0.6903411E-02  0.1960223E+05  0.5967898E+00  0.1179504E+08 -0.1570954E+01  0.6124496E+05 -0.2687748E+01
  0.1662424E+01  0.1346181E+07  0.1568252E+01  0.7243112E+04 -0.7269961E+00  0.9581858E+05 -0.1166525E-01  0.2505990E+05  0.3502190E+00  0.1167985E+08 -0.1571497E+01  0.3608750E+05 -0.1503078E+01
  0.1702727E+01  0.1242713E+07  0.1567150E+01  0.8649342E+04 -0.6440977E+00  0.6795909E+04 -0.1337627E+00  0.3143972E+05  0.1966577E+00  0.1086762E+08 -0.1572174E+01  0.7164477E+05 -0.6506417E+00
  0.1743030E+01  0.1071843E+07  0.1565630E+01  0.9690136E+04 -0.5553190E+00  0.7809058E+05 -0.3133443E+01  0.3782592E+05  0.9571376E-01  0.9458314E+07 -0.1573101E+01  0.1155198E+06 -0.4355201E+00
  0.1783333E+01  0.8494497E+06  0.1563299E+01  0.1038433E+05 -0.4643717E+00  0.1528962E+06 -0.3139510E+01  0.4353963E+05  0.2112618E-01  0.7580865E+07 -0.1574512E+01  0.1513022E+06 -0.3496237E+00
  0.1823636E+01  0.5937724E+06  0.1559086E+01  0.1074271E+05 -0.3756316E+00  0.2125247E+06  0.3141437E+01  0.4804738E+05 -0.4300784E-01  0.5387034E+07 -0.1577025E+01  0.1746188E+06 -0.3058377E+00
  0.1863939E+01  0.3244020E+06  0.1548517E+01  0.1076132E+05 -0.2941312E+00  0.2528552E+06  0.3140012E+01  0.5094993E+05 -0.1076452E+00  0.3043319E+07 -0.1583102E+01  0.1833721E+06 -0.2818653E+00
  0.1904242E+01  0.6132488E+05  0.1454103E+01  0.1042131E+05 -0.2256793E+00  0.2712045E+06  0.3138791E+01  0.5200311E+05 -0.1818974E+00  0.7215628E+06 -0.1625424E+01  0.1769667E+06 -0.2703314E+00
  0.1944546E+01  0.1780536E+06 -0.1533361E+01  0.9698351E+04 -0.1773524E+00  0.2666193E+06  0.3137502E+01  0.5117227E+05 -0.2752158E+00  0.1416360E+07  0.1598371E+01  0.1562330E+06 -0.2695817E+00
  0.1984848E+01  0.3760837E+06 -0.1555385E+01  0.8581991E+04 -0.1595701E+00  0.2400433E+06  0.3135890E+01  0.4870025E+05 -0.3989769E+00  0.3218639E+07  0.1582045E+01  0.1233626E+06 -0.2829088E+00
  0.2025151E+01  0.5209114E+06 -0.1562040E+01  0.7104063E+04 -0.1919425E+00  0.1943193E+06  0.3133496E+01  0.4518689E+05 -0.5670862E+00  0.4568710E+07  0.1577548E+01  0.8177791E+05 -0.3263365E+00
  0.2065454E+01  0.6045552E+06 -0.1565804E+01  0.5390088E+04 -0.3209055E+00  0.1340192E+06  0.3129011E+01  0.4164605E+05 -0.7931107E+00  0.5385776E+07  0.1575096E+01  0.3626402E+05 -0.5031759E+00
  0.2105757E+01  0.6243301E+06 -0.1568793E+01  0.3809278E+04 -0.6672548E+00  0.6509425E+05  0.3115554E+01  0.3939174E+05 -0.1078255E+01  0.5634562E+07  0.1573198E+01  0.1654945E+05 -0.2579591E+01
  0.2146061E+01  0.5830741E+06 -0.1571877E+01  0.3312691E+04 -0.1350037E+01  0.5910453E+04  0.2729781E+00  0.3948993E+05 -0.1394627E+01  0.5328889E+07  0.1571278E+01  0.5528244E+05 -0.3127656E+01
  0.2186364E+01  0.4889307E+06 -0.1575903E+01  0.4464466E+04 -0.1925121E+01  0.7127338E+05  0.1942445E-01  0.4196754E+05 -0.1694804E+01  0.4531388E+07  0.1568812E+01  0.8821788E+05  0.3071776E+01
  0.2226667E+01  0.3546473E+06 -0.1582677E+01  0.6258071E+04 -0.2200643E+01  0.1251133E+06  0.8614615E-02  0.4574923E+05 -0.1949933E+01  0.3348658E+07  0.1564738E+01  0.1097427E+06  0.3036186E+01
  0.2266970E+01  0.1964148E+06 -0.1599557E+01  0.7932560E+04 -0.2344748E+01  0.1619259E+06  0.4274640E-02  0.4941195E+05 -0.2161439E+01  0.1921979E+07  0.1554962E+01  0.1179550E+06  0.3012965E+01
  0.2307273E+01  0.3276972E+05 -0.1776217E+01  0.9142859E+04 -0.2442471E+01  0.1782353E+06  0.1420779E-02  0.5180490E+05 -0.2345010E+01  0.4150594E+06  0.1477712E+01  0.1126831E+06  0.2992025E+01
  0.2347576E+01  0.1202953E+06  0.1630954E+01  0.9711264E+04 -0.2529196E+01  0.1728725E+06 -0.1202211E-02  0.5226668E+05 -0.2518341E+01  0.1010391E+07 -0.1527230E+01  0.9538768E+05  0.2966818E+01
  0.2387879E+01  0.2440782E+06  0.1600461E+01  0.9573479E+04 -0.2625555E+01  0.1471934E+06 -0.4460742E-02  0.5066340E+05 -0.2698294E+01  0.2192436E+07 -0.1549728E+01  0.6897108E+05  0.2926081E+01
  0.2428182E+01  0.3271572E+06  0.1591269E+01  0.8779771E+04 -0.2751529E+01  0.1050039E+06 -0.1007570E-01  0.4738145E+05 -0.2901532E+01  0.3010512E+07 -0.1555895E+01  0.3749978E+05  0.2825260E+01
  0.2468485E+01  0.3620818E+06  0.1586384E+01  0.7513898E+04 -0.2936226E+01  0.5216879E+05 -0.2644392E-01  0.4329329E+05  0.3139195E+01  0.3385484E+07 -0.1558966E+01  0.8436788E+04  0.1948998E+01
  0.2508788E+01  0.3474579E+06  0.1582781E+01  0.6132745E+04  0.3056513E+01  0.4424067E+04 -0.2773117E+01  0.3961092E+05  0.2848366E+01  0.3293792E+07 -0.1561052E+01  0.2618700E+05  0.1474573E+00
  0.2549091E+01  0.2881050E+06  0.1579063E+01  0.5200244E+04  0.2617532E+01  0.5619038E+05 -0.3111676E+01  0.3748546E+05  0.2520144E+01  0.2771080E+07 -0.1562995E+01  0.4781591E+05  0.5550327E-02
  0.2589394E+01  0.1944623E+06  0.1573110E+01  0.5216322E+04  0.2110686E+01  0.9690434E+05 -0.3124758E+01  0.3736171E+05  0.2190835E+01  0.1908426E+07 -0.1565831E+01  0.6026016E+05 -0.3963185E-01
  0.2629697E+01  0.8124387E+05  0.1552806E+01  0.5974422E+04  0.1707664E+01  0.1208560E+06 -0.3129629E+01  0.3870195E+05  0.1898560E+01  0.8409149E+06 -0.1574735E+01  0.6232073E+05 -0.5971652E-01
  0.2670000E+01  0.3477908E+05 -0.1479106E+01  0.6831743E+04  0.1434506E+01  0.1250414E+06 -0.3132502E+01  0.4052642E+05  0.1658910E+01  0.2710585E+06  0.1628586E+01  0.5466136E+05 -0.6441261E-01
  0.2710303E+01  0.1363775E+06 -0.1537306E+01  0.7342252E+04  0.1238145E+01  0.1094312E+06 -0.3134962E+01  0.4211972E+05  0.1470283E+01  0.1262638E+07  0.1591782E+01  0.3950453E+05 -0.4535834E-01
  0.2750606E+01  0.2096257E+06 -0.1544616E+01  0.7327822E+04  0.1076612E+01  0.7703663E+05 -0.3138436E+01  0.4333334E+05  0.1329343E+01  0.1992398E+07  0.1588311E+01  0.2036231E+05  0.6023837E-01
  0.2790909E+01  0.2450315E+06 -0.1546836E+01  0.6799328E+04  0.9250636E+00  0.3348848E+05  0.3133423E+01  0.4459394E+05  0.1238793E+01  0.2361746E+07  0.1587790E+01  0.5200842E+04  0.1357168E+01
  0.2831212E+01  0.2394649E+06 -0.1547032E+01  0.5895141E+04  0.7705147E+00  0.1388340E+05  0.5653360E-01  0.4687070E+05  0.1205906E+01  0.2332530E+07  0.1588701E+01  0.1694290E+05  0.2570284E+01
  0.2871515E+01  0.1966493E+06 -0.1545498E+01  0.4817600E+04  0.6163049E+00  0.5717454E+05  0.2183553E-01  0.5171618E+05  0.1231931E+01  0.1934003E+07  0.1591295E+01  0.2578678E+05  0.2624312E+01
  0.2911818E+01  0.1265792E+06 -0.1540761E+01  0.3754646E+04  0.5047863E+00  0.8947446E+05  0.1817546E-01  0.6118628E+05  0.1299176E+01  0.1258753E+07  0.1597776E+01  0.2603848E+05  0.2520879E+01
  0.2952121E+01  0.4382695E+05 -0.1518484E+01  0.2876798E+04  0.5685569E+00  0.1060148E+06  0.1776764E-01  0.7735657E+05  0.1375378E+01  0.4473178E+06  0.1627138E+01  0.1853903E+05  0.2127921E+01
  0.2992424E+01  0.3514386E+05  0.1553849E+01  0.2732838E+04  0.9927814E+00  0.1051701E+06  0.1895016E-01  0.1017112E+06  0.1436191E+01  0.3386493E+06 -0.1612397E+01  0.1787994E+05  0.9112399E+00
  0.3032727E+01  0.9474388E+05  0.1582633E+01  0.4301861E+04  0.1421718E+01  0.8882438E+05  0.2179031E-01  0.1348994E+06  0.1475470E+01  0.9411975E+06 -0.1572482E+01  0.4028969E+05  0.2565414E+00
  0.3073030E+01  0.1236788E+06  0.1592584E+01  0.7544375E+04  0.1573022E+01  0.6205602E+05  0.2744294E-01  0.1767858E+06  0.1497722E+01  0.1244831E+07 -0.1561780E+01  0.7127243E+05  0.5969054E-01
  0.3113333E+01  0.1169570E+06  0.1604779E+01  0.1212649E+05  0.1603479E+01  0.3214312E+05  0.4043135E-01  0.2264877E+06  0.1509566E+01  0.1194744E+07 -0.1551370E+01  0.1039885E+06 -0.3077496E-01
  0.3153636E+01  0.7714680E+05  0.1633550E+01  0.1780248E+05  0.1597647E+01  0.7054812E+04  0.1054743E+00  0.2823552E+06  0.1516350E+01  0.8117367E+06 -0.1529826E+01  0.1344252E+06 -0.8376053E-01
  0.3193939E+01  0.1460215E+05  0.1935187E+01  0.2425369E+05  0.1583210E+01  0.6379341E+04  0.3131178E+01  0.3419693E+06  0.1521688E+01  0.1919745E+06 -0.1359211E+01  0.1595790E+06 -0.1180841E+00
  0.3234242E+01  0.5848469E+05 -0.1656948E+01  0.3105334E+05  0.1569487E+01  0.3909611E+04 -0.2966632E+01  0.4021628E+06  0.1527831E+01  0.5297824E+06  0.1488465E+01  0.1775498E+06 -0.1396335E+00
  0.3274545E+01  0.1218356E+06 -0.1606362E+01  0.3768931E+05  0.1559775E+01  0.1512465E+05 -0.9495427E-01  0.4591006E+06  0.1536088E+01  0.1166091E+07  0.1534410E+01  0.1876717E+06 -0.1494316E+00
  0.3314848E+01  0.1615468E+06 -0.1590362E+01  0.4360779E+05  0.1555253E+01  0.4680183E+05 -0.4525118E-01  0.5084270E+06  0.1547158E+01  0.1568952E+07  0.1547442E+01  0.1904640E+06 -0.1461019E+00
  0.3355152E+01  0.1674264E+06 -0.1580472E+01  0.4826391E+05  0.1556327E+01  0.8431988E+05 -0.3138401E-01  0.5454935E+06  0.1561359E+01  0.1633172E+07  0.1554617E+01  0.1873723E+06 -0.1271250E+00
  0.3395455E+01  0.1370083E+06 -0.1569722E+01  0.5117428E+05  0.1563119E+01  0.1188347E+06 -0.2471807E-01  0.5656934E+06  0.1578798E+01  0.1331063E+07  0.1561433E+01  0.1803292E+06 -0.9017415E-01
  0.3435757E+01  0.7626855E+05 -0.1545021E+01  0.5196473E+05  0.1575678E+01  0.1416914E+06 -0.2060723E-01  0.5649039E+06  0.1599511E+01  0.7206825E+06  0.1576390E+01  0.1711746E+06 -0.3483400E-01
  0.3476061E+01  0.4037496E+04  0.4475017E+00  0.5041069E+05  0.1594095E+01  0.1465232E+06 -0.1738851E-01  0.5400452E+06  0.1623620E+01  0.6966155E+05 -0.1882430E+01  0.1610120E+06  0.3596283E-01
  0.3516364E+01  0.7986186E+05  0.1508528E+01  0.4646555E+05  0.1618642E+01  0.1308906E+06 -0.1385495E-01  0.4896924E+06  0.1651550E+01  0.8557921E+06 -0.1614567E+01  0.1496893E+06  0.1163227E+00
  0.3556667E+01  0.1405380E+06  0.1529731E+01  0.4027594E+05  0.1650078E+01  0.9700508E+05 -0.7817537E-02  0.4146635E+06  0.1684490E+01  0.1470352E+07 -0.1604836E+01  0.1357051E+06  0.2005054E+00
  0.3596970E+01  0.1710600E+06  0.1536334E+01  0.3218366E+05  0.1690473E+01  0.5130517E+05  0.1016123E-01  0.3184646E+06  0.1725714E+01  0.1777756E+07 -0.1602864E+01  0.1167521E+06  0.2878636E+00
  0.3637273E+01  0.1659945E+06  0.1539100E+01  0.2271507E+05  0.1746257E+01  0.3458312E+04  0.5736740E+00  0.2074782E+06  0.1786173E+01  0.1721099E+07 -0.1603709E+01  0.9079853E+05  0.3904857E+00
  0.3677576E+01  0.1287216E+06  0.1540682E+01  0.1256833E+05  0.1845715E+01  0.3874909E+05  0.3060988E+01  0.9110077E+05  0.1931543E+01  0.1333502E+07 -0.1606866E+01  0.5754948E+05  0.5643742E+00
  0.3717879E+01  0.7035566E+05  0.1544499E+01  0.2912774E+04  0.2400440E+01  0.6578336E+05  0.3080057E+01  0.2998943E+05 -0.2031238E+01  0.7277744E+06 -0.1614267E+01  0.2337217E+05  0.1245104E+01
  0.3758182E+01  0.6617877E+04  0.1661100E+01  0.7165489E+04 -0.1610125E+01  0.7452555E+05  0.3081657E+01  0.1228952E+06 -0.1488779E+01  0.6459855E+05 -0.1708068E+01  0.3696661E+05  0.2872834E+01
  0.3798485E+01  0.4683374E+05 -0.1638072E+01  0.1460250E+05 -0.1437531E+01  0.6577043E+05  0.3077102E+01  0.1949612E+06 -0.1391594E+01  0.4938335E+06  0.1535581E+01  0.7504349E+05 -0.3083916E+01
  0.3838788E+01  0.7819059E+05 -0.1640234E+01  0.1976225E+05 -0.1359092E+01  0.4445669E+05  0.3066838E+01  0.2351952E+06 -0.1327472E+01  0.8256870E+06  0.1518526E+01  0.1051684E+06 -0.2969755E+01
  0.3879091E+01  0.8311523E+05 -0.1655544E+01  0.2212287E+05 -0.1299383E+01  0.1802319E+05  0.3043024E+01  0.2405057E+06 -0.1268412E+01  0.8839321E+06  0.1498321E+01  0.1192237E+06 -0.2897480E+01
  0.3919394E+01  0.6513832E+05 -0.1688409E+01  0.2152699E+05 -0.1245970E+01  0.5890080E+04 -0.3627264E-01  0.2129178E+06 -0.1205373E+01  0.7027644E+06  0.1462701E+01  0.1130901E+06 -0.2828162E+01
  0.3959697E+01  0.3404051E+05 -0.1779078E+01  0.1819129E+05 -0.1195251E+01  0.2156971E+05 -0.1089399E+00  0.1593115E+06 -0.1129955E+01  0.3813147E+06  0.1371533E+01  0.8707126E+05 -0.2728434E+01
  0.4000000E+01  0.5274251E+04 -0.2971846E+01  0.1270954E+05 -0.1147057E+01  0.2678887E+05 -0.1595159E+00  0.9035458E+05 -0.1019553E+01  0.6968812E+05  0.4814626E+00  0.4717519E+05 -0.2480783E+01
