VARIABLES="w (rad/s)"  
"A   1   1" "B   1   1"
"A   1   2" "B   1   2"
"A   1   3" "B   1   3"
"A   1   4" "B   1   4"
"A   1   5" "B   1   5"
"A   1   6" "B   1   6"
Zone t="Motion of body    1 in DoF   1",I=   100,F=POINT
  0.1000000E-01  0.1639781E+08  0.2016635E-05  0.3433383E+04 -0.7556751E-07  0.6791777E+03 -0.4575331E-02  0.5810250E+06 -0.7525086E-07 -0.1341757E+09 -0.1653608E-04 -0.4148198E+05 -0.2071699E-05
  0.5030303E-01  0.1643660E+08  0.3821400E+00  0.3502938E+04  0.1353404E-03  0.6627891E+03 -0.5845302E+00  0.5830403E+06  0.1532053E-01 -0.1344960E+09 -0.3121401E+01 -0.4179361E+05 -0.1239645E-02
  0.9060606E-01  0.1653027E+08  0.2364772E+02  0.3678328E+04  0.1463975E-01  0.6407656E+03 -0.3419667E+01  0.5879630E+06  0.9922760E+00 -0.1352689E+09 -0.1931992E+03 -0.4253188E+05 -0.5109824E-01
  0.1309091E+00  0.1668628E+08  0.3061837E+03  0.3978305E+04  0.2075964E+00  0.6294609E+03 -0.1027772E+02  0.5961872E+06  0.1297170E+02 -0.1365561E+09 -0.2501847E+04 -0.4368971E+05 -0.6505327E+00
  0.1712121E+00  0.1691725E+08  0.1965438E+04  0.4440781E+04  0.1463446E+01  0.6077305E+03 -0.2289275E+02  0.6084880E+06  0.8416904E+02 -0.1384609E+09 -0.1606289E+05 -0.4534917E+05 -0.4357327E+01
  0.2115152E+00  0.1724147E+08  0.8430073E+04  0.5072711E+04  0.7081901E+01  0.6081328E+03 -0.4277836E+02  0.6256764E+06  0.3666892E+03 -0.1411337E+09 -0.6891392E+05 -0.4771316E+05 -0.2011175E+02
  0.2518182E+00  0.1767892E+08  0.2781595E+05  0.5979281E+04  0.2694713E+02  0.6088691E+03 -0.7091750E+02  0.6492088E+06  0.1235825E+04 -0.1447387E+09 -0.2274602E+06 -0.5085967E+05 -0.7246993E+02
  0.2921212E+00  0.1824979E+08  0.7632213E+05  0.7264828E+04  0.8693787E+02  0.6471641E+03 -0.1078679E+03  0.6807182E+06  0.3487307E+04 -0.1494441E+09 -0.6243462E+06 -0.5496289E+05 -0.2193636E+03
  0.3324242E+00  0.1896608E+08  0.1825645E+06  0.9074922E+04  0.2488022E+03  0.7027109E+03 -0.1531575E+03  0.7218139E+06  0.8652272E+04 -0.1553493E+09 -0.1494109E+07 -0.6024230E+05 -0.5820539E+03
  0.3727273E+00  0.1982287E+08  0.3924124E+06  0.1155197E+05  0.6488541E+03  0.7842520E+03 -0.2056008E+03  0.7735002E+06  0.1948303E+05 -0.1624176E+09 -0.3213138E+07 -0.6696059E+05 -0.1392092E+04
  0.4130303E+00  0.2078134E+08  0.7728372E+06  0.1479835E+05  0.1563066E+04  0.8988086E+03 -0.2610080E+03  0.8352787E+06  0.4062311E+05 -0.1703343E+09 -0.6331803E+07 -0.7523081E+05 -0.3054162E+04
  0.4533333E+00  0.2174702E+08  0.1411027E+07  0.1866004E+05  0.3491172E+04  0.1040199E+04 -0.3114048E+03  0.9026129E+06  0.7927502E+05 -0.1783291E+09 -0.1156807E+08 -0.8487739E+05 -0.6209706E+04
  0.4936364E+00  0.2254815E+08  0.2401376E+07  0.2236706E+05  0.7186194E+04  0.1222438E+04 -0.3470047E+03  0.9631758E+06  0.1450021E+06 -0.1849958E+09 -0.1970198E+08 -0.9513016E+05 -0.1175041E+05
  0.5339394E+00  0.2293036E+08  0.3810695E+07  0.2400011E+05  0.1343931E+05  0.1433180E+04 -0.3511366E+03  0.9924253E+06  0.2467921E+06 -0.1882454E+09 -0.3129095E+08 -0.1046123E+06 -0.2070260E+05
  0.5742424E+00  0.2259745E+08  0.5618926E+07  0.2056620E+05  0.2235822E+05  0.1612621E+04 -0.3135218E+03  0.9552708E+06  0.3850655E+06 -0.1856356E+09 -0.4618225E+08 -0.1109189E+06 -0.3382364E+05
  0.6145454E+00  0.2133218E+08  0.7663594E+07  0.9402703E+04  0.3236079E+05  0.1764549E+04 -0.2260471E+03  0.8218436E+06  0.5414249E+06 -0.1753644E+09 -0.6305380E+08 -0.1110997E+06 -0.5095213E+05
  0.6548485E+00  0.1914179E+08  0.9647085E+07 -0.9424805E+04  0.3995045E+05  0.1850297E+04 -0.9673340E+02  0.5924724E+06  0.6769206E+06 -0.1574631E+09 -0.7946629E+08 -0.1035376E+06 -0.7069582E+05
  0.6951515E+00  0.1631297E+08  0.1124362E+08 -0.3157508E+05  0.4152406E+05  0.1843627E+04  0.5034010E+02  0.3121765E+06  0.7504829E+06 -0.1342647E+09 -0.9273855E+08 -0.8816895E+05 -0.9052885E+05
  0.7354546E+00  0.1329370E+08  0.1224187E+08 -0.5091856E+05  0.3582129E+05  0.1788998E+04  0.1973029E+03  0.4677519E+05  0.7440086E+06 -0.1094400E+09 -0.1011188E+09 -0.6728905E+05 -0.1080377E+06
  0.7757576E+00  0.1049142E+08  0.1260889E+08 -0.6321918E+05  0.2454075E+05  0.1681354E+04  0.3217909E+03 -0.1546414E+06  0.6698904E+06 -0.8634189E+08 -0.1043186E+09 -0.4386708E+05 -0.1216055E+06
  0.8160606E+00  0.8148734E+07  0.1244762E+08 -0.6769415E+05  0.1072001E+05  0.1567911E+04  0.4227879E+03 -0.2767257E+06  0.5563270E+06 -0.6697868E+08 -0.1031687E+09 -0.2067151E+05 -0.1309041E+06
  0.8563637E+00  0.6339491E+07  0.1191304E+08 -0.6594188E+05 -0.2960382E+04  0.1457479E+04  0.5045328E+03 -0.3298025E+06  0.4306187E+06 -0.5197368E+08 -0.9893411E+08  0.7266836E+03 -0.1362018E+06
  0.8966666E+00  0.5029764E+07  0.1115091E+08 -0.6029438E+05 -0.1498338E+05  0.1345160E+04  0.5698194E+03 -0.3338152E+06  0.3101485E+06 -0.4106105E+08 -0.9280861E+08  0.1939807E+05 -0.1383497E+06
  0.9369696E+00  0.4138840E+07  0.1027297E+08 -0.5269609E+05 -0.2474685E+05  0.1253119E+04  0.6323630E+03 -0.3075087E+06  0.2037718E+06 -0.3358736E+08 -0.8571043E+08  0.3530775E+05 -0.1379564E+06
  0.9772727E+00  0.3576677E+07  0.9355239E+07 -0.4454929E+05 -0.3231193E+05  0.1142862E+04  0.6946815E+03 -0.2654271E+06  0.1135733E+06 -0.2881806E+08 -0.7826515E+08  0.4852546E+05 -0.1357354E+06
  0.1017576E+01  0.3263001E+07  0.8445562E+07 -0.3665579E+05 -0.3795711E+05  0.1021104E+04  0.7667587E+03 -0.2167390E+06  0.3887292E+05 -0.2609742E+08 -0.7086803E+08  0.5936158E+05 -0.1321508E+06
  0.1057879E+01  0.3132015E+07  0.7571514E+07 -0.2937635E+05 -0.4206566E+05  0.8523579E+03  0.8812021E+03 -0.1667731E+06 -0.2245615E+05 -0.2488608E+08 -0.6374805E+08  0.6823248E+05 -0.1275389E+06
  0.1098182E+01  0.3131814E+07  0.6747634E+07 -0.2291537E+05 -0.4507658E+05  0.2198218E+03  0.1247704E+04 -0.1190088E+06 -0.7364112E+05 -0.2475772E+08 -0.5702603E+08  0.7542085E+05 -0.1222856E+06
  0.1138485E+01  0.3223501E+07  0.5979756E+07 -0.1731357E+05 -0.4738790E+05  0.1800461E+04 -0.4276284E+03 -0.7494962E+05 -0.1177153E+06 -0.2539291E+08 -0.5075298E+08  0.8066499E+05 -0.1162648E+06
  0.1178788E+01  0.3377935E+07  0.5267559E+07 -0.1243271E+05 -0.4928512E+05  0.1252226E+04  0.3644052E+03 -0.3461584E+05 -0.1570517E+06 -0.2655076E+08 -0.4492826E+08  0.8531408E+05 -0.1101658E+06
  0.1219091E+01  0.3572416E+07  0.4606018E+07 -0.8191184E+04 -0.5130664E+05  0.1052530E+04  0.4697562E+03  0.1739969E+04 -0.1963384E+06 -0.2804279E+08 -0.3951261E+08  0.8888170E+05 -0.1037720E+06
  0.1259394E+01  0.3790340E+07  0.3984224E+07 -0.4406375E+04 -0.5402487E+05  0.9480381E+03  0.5024604E+03  0.3498325E+05 -0.2405738E+06 -0.2972832E+08 -0.3442124E+08  0.9170248E+05 -0.9705053E+05
  0.1299697E+01  0.4018535E+07  0.3379380E+07 -0.6268711E+03 -0.5856555E+05  0.8574697E+03  0.4874306E+03  0.6776134E+05 -0.3001810E+06 -0.3149038E+08 -0.2947293E+08  0.9424362E+05 -0.8991920E+05
  0.1340000E+01  0.4246434E+07  0.2727890E+07  0.4632516E+04 -0.6801638E+05  0.7788623E+03  0.3698707E+03  0.1103406E+06 -0.4037846E+06 -0.3321583E+08 -0.2415847E+08  0.9731905E+05 -0.8189461E+05
  0.1380303E+01  0.4505092E+07  0.1734231E+07  0.2212745E+05 -0.9242091E+05  0.6215859E+03 -0.1757348E+03  0.2460492E+06 -0.6543486E+06 -0.3502377E+08 -0.1607210E+08  0.1034599E+06 -0.6900067E+05
  0.1420606E+01  0.7680727E+07  0.1344432E+07  0.2699980E+05 -0.3076584E+05  0.3268076E+04 -0.1956923E+04  0.4457290E+06 -0.1830660E+06 -0.6053356E+08 -0.1024291E+08  0.6934605E+05 -0.7156365E+04
  0.1460909E+01  0.5561766E+07  0.3043921E+07  0.2611935E+05  0.1652362E+05  0.1475127E+04  0.1361711E+04  0.3640921E+06  0.2775106E+06 -0.4438836E+08 -0.2588150E+08  0.7606360E+05 -0.6812245E+05
  0.1501212E+01  0.5525687E+07  0.2388122E+07  0.1300846E+05 -0.1018504E+04  0.1129781E+04  0.1186976E+04  0.2448407E+06  0.1212282E+06 -0.4393844E+08 -0.2075840E+08  0.8181392E+05 -0.6374718E+05
  0.1541515E+01  0.5667558E+07  0.1981056E+07  0.1063246E+05 -0.8452245E+04  0.1009898E+04  0.1163817E+04  0.2247284E+06  0.4624269E+05 -0.4501769E+08 -0.1746564E+08  0.8319245E+05 -0.5829223E+05
  0.1581818E+01  0.5839116E+07  0.1670964E+07  0.1009351E+05 -0.1190248E+05  0.9232646E+03  0.1091809E+04  0.2230662E+06  0.5333186E+04 -0.4636898E+08 -0.1491625E+08  0.8318864E+05 -0.5293733E+05
  0.1622121E+01  0.6014249E+07  0.1415047E+07  0.1006723E+05 -0.1366752E+05  0.8758330E+03  0.1041294E+04  0.2267532E+06 -0.2066832E+05 -0.4776431E+08 -0.1279071E+08  0.8250987E+05 -0.4777208E+05
  0.1662424E+01  0.6185211E+07  0.1194474E+07  0.1024179E+05 -0.1435021E+05  0.7213691E+03  0.1035619E+04  0.2325627E+06 -0.3700168E+05 -0.4913425E+08 -0.1094461E+08  0.8146805E+05 -0.4276222E+05
  0.1702727E+01  0.6350183E+07  0.9978798E+06  0.1048096E+05 -0.1465408E+05  0.4314668E+03  0.1399850E+03  0.2392426E+06 -0.4999051E+05 -0.5046048E+08 -0.9287970E+07  0.8019988E+05 -0.3766235E+05
  0.1743030E+01  0.6509334E+07  0.8187519E+06  0.1072304E+05 -0.1477892E+05  0.1176751E+04  0.7121965E+03  0.2461052E+06 -0.6081818E+05 -0.5174134E+08 -0.7768401E+07  0.7880383E+05 -0.3361800E+05
  0.1783333E+01  0.6663458E+07  0.6508815E+06  0.1115457E+05 -0.1483015E+05  0.1071349E+04  0.1105271E+04  0.2545102E+06 -0.7104662E+05 -0.5298073E+08 -0.6334750E+07  0.7732259E+05 -0.2894619E+05
  0.1823636E+01  0.6815521E+07  0.4819979E+06  0.1187716E+05 -0.1483704E+05  0.9884443E+03  0.1296429E+04  0.2654467E+06 -0.8197210E+05 -0.5419798E+08 -0.4880799E+07  0.7567555E+05 -0.2399780E+05
  0.1863939E+01  0.6979960E+07  0.2831675E+06  0.1340944E+05 -0.1475823E+05  0.9547158E+03  0.1411719E+04  0.2838400E+06 -0.9559711E+05 -0.5549970E+08 -0.3145461E+07  0.7371371E+05 -0.1761725E+05
  0.1904242E+01  0.7257123E+07 -0.1940937E+05  0.1790909E+05 -0.1046879E+05  0.9783926E+03  0.1672246E+04  0.3341524E+06 -0.8640449E+05 -0.5768102E+08 -0.3576021E+06  0.6936448E+05 -0.6670732E+04
  0.1944546E+01  0.7622725E+07  0.1166865E+07  0.1495253E+05  0.3793151E+04  0.3651025E+03  0.2026201E+04  0.3369284E+06  0.9109898E+05 -0.6123461E+08 -0.9647052E+07  0.5606491E+05 -0.2974472E+05
  0.1984848E+01  0.7281526E+07  0.8022388E+06  0.7616660E+04  0.2207347E+04  0.4712441E+03  0.1285434E+04  0.2559431E+06  0.7500978E+05 -0.5829298E+08 -0.7324179E+07  0.6652922E+05 -0.2777598E+05
  0.2025151E+01  0.7343013E+07  0.5561979E+06  0.7183949E+04 -0.2210051E+04  0.4864717E+03  0.1136097E+04  0.2518322E+06  0.2549653E+05 -0.5871797E+08 -0.5310121E+07  0.6671887E+05 -0.2169464E+05
  0.2065454E+01  0.7426604E+07  0.4236935E+06  0.7274703E+04 -0.3651915E+04  0.4658867E+03  0.1085510E+04  0.2548949E+06  0.5014708E+04 -0.5937289E+08 -0.4183340E+07  0.6574354E+05 -0.1778339E+05
  0.2105757E+01  0.7509561E+07  0.3288006E+06  0.7337570E+04 -0.4060852E+04  0.3682207E+03  0.9066191E+03  0.2584186E+06 -0.5061341E+04 -0.6003878E+08 -0.3359109E+07  0.6458112E+05 -0.1455918E+05
  0.2146061E+01  0.7590392E+07  0.2515656E+06  0.7286828E+04 -0.4144596E+04  0.6003506E+03 -0.9397114E+02  0.2612597E+06 -0.1140428E+05 -0.6069349E+08 -0.2677218E+07  0.6307276E+05 -0.1155792E+05
  0.2186364E+01  0.7669326E+07  0.1852945E+06  0.7259969E+04 -0.4210243E+04  0.8562744E+03  0.1264090E+04  0.2642539E+06 -0.1707863E+05 -0.6133514E+08 -0.2079612E+07  0.6203801E+05 -0.9824898E+04
  0.2226667E+01  0.7747353E+07  0.1232265E+06  0.7330109E+04 -0.4065299E+04  0.6565146E+03  0.1393910E+04  0.2683113E+06 -0.2126913E+05 -0.6196887E+08 -0.1506317E+07  0.6074726E+05 -0.7189196E+04
  0.2266970E+01  0.7830775E+07  0.5456511E+05  0.7524609E+04 -0.3659027E+04  0.5559111E+03  0.1496222E+04  0.2742177E+06 -0.2440484E+05 -0.6264306E+08 -0.8471502E+06  0.5900739E+05 -0.4074071E+04
  0.2307273E+01  0.7962241E+07 -0.2354466E+05  0.8152562E+04 -0.1520390E+04  0.4534541E+03  0.1672460E+04  0.2883572E+06 -0.1489607E+05 -0.6371840E+08  0.3588073E+05  0.5523249E+05 -0.4043164E+03
  0.2347576E+01  0.8044450E+07  0.5164294E+06  0.6488312E+04  0.1342321E+04  0.8379590E+02  0.1255634E+04  0.2800515E+06  0.5139522E+05 -0.6468110E+08 -0.4416886E+07  0.5282588E+05 -0.2004435E+05
  0.2387879E+01  0.7951654E+07  0.3245032E+06  0.5247965E+04 -0.6373209E+02  0.2578516E+03  0.8540896E+03  0.2608073E+06  0.2792730E+05 -0.6380610E+08 -0.3150260E+07  0.5724824E+05 -0.1279903E+05
  0.2428182E+01  0.7990780E+07  0.2119485E+06  0.5100555E+04 -0.1065284E+04  0.2898018E+03  0.7547151E+03  0.2606686E+06  0.1069381E+05 -0.6408756E+08 -0.2194694E+07  0.5667700E+05 -0.8277347E+04
  0.2468485E+01  0.8036834E+07  0.1511874E+06  0.5077617E+04 -0.1553083E+04  0.2724092E+03  0.4514474E+03  0.2622916E+06  0.1793215E+04 -0.6445309E+08 -0.1652619E+07  0.5565371E+05 -0.5615262E+04
  0.2508788E+01  0.8082296E+07  0.1084987E+06  0.5034133E+04 -0.1567128E+04  0.5817109E+03 -0.2118696E+03  0.2639614E+06 -0.2268815E+04 -0.6482188E+08 -0.1259719E+07  0.5442629E+05 -0.4170752E+04
  0.2549091E+01  0.8127201E+07  0.7482816E+05  0.4905875E+04 -0.1361788E+04  0.6439385E+03  0.1154538E+04  0.2651250E+06 -0.4063883E+04 -0.6518849E+08 -0.9374102E+06  0.5378066E+05 -0.3175720E+04
  0.2589394E+01  0.8172149E+07  0.4374625E+05  0.4722391E+04 -0.1149465E+04  0.4534600E+03  0.1143085E+04  0.2661804E+06 -0.5952272E+04 -0.6555575E+08 -0.6228279E+06  0.5269372E+05 -0.1343913E+04
  0.2629697E+01  0.8224752E+07  0.7333754E+04  0.4531133E+04 -0.5664694E+03  0.3757891E+03  0.1172363E+04  0.2685814E+06 -0.5261548E+04 -0.6598848E+08 -0.2162045E+06  0.5098651E+05  0.6878512E+03
  0.2670000E+01  0.8321752E+07  0.8276952E+05  0.3375273E+04  0.2167079E+03  0.1084062E+03  0.1137957E+04  0.2680095E+06  0.1408909E+05 -0.6687498E+08 -0.6118495E+06  0.4698609E+05 -0.4122280E+04
  0.2710303E+01  0.8270550E+07  0.2230392E+06  0.3788281E+04 -0.2144743E+04  0.2373662E+03  0.1395502E+03  0.2623967E+06  0.7514094E+04 -0.6649173E+08 -0.2139333E+07  0.5090798E+05 -0.1038833E+05
  0.2750606E+01  0.8282142E+07  0.1378350E+06  0.3718016E+04 -0.1922714E+04  0.3370771E+03  0.7854752E+02  0.2612695E+06 -0.5643847E+03 -0.6654328E+08 -0.1439759E+07  0.5105601E+05 -0.5674177E+04
  0.2790909E+01  0.8308716E+07  0.9432077E+05  0.3560258E+04 -0.1775501E+04  0.4001025E+03 -0.1332994E+03  0.2610732E+06 -0.4280269E+04 -0.6674963E+08 -0.1047404E+07  0.5039066E+05 -0.3349086E+04
  0.2831212E+01  0.8336684E+07  0.6567312E+05  0.3314336E+04 -0.1647703E+04  0.7166270E+03 -0.3047172E+03  0.2603393E+06 -0.6945324E+04 -0.6697524E+08 -0.7771526E+06  0.4947170E+05 -0.2632551E+04
  0.2871515E+01  0.8364614E+07  0.4409549E+05  0.2982375E+04 -0.1379138E+04  0.6140918E+03  0.7141702E+03  0.2592702E+06 -0.8020580E+04 -0.6720253E+08 -0.5599212E+06  0.4908382E+05 -0.1712571E+04
  0.2911818E+01  0.8392988E+07  0.2255257E+05  0.2355453E+04 -0.1138751E+04  0.4720020E+03  0.7384797E+03  0.2564358E+06 -0.9286168E+04 -0.6743436E+08 -0.3240646E+06  0.4810219E+05  0.2441418E+02
  0.2952121E+01  0.8431617E+07 -0.7306877E+03  0.7456172E+03 -0.1354713E+04  0.2213799E+03  0.8024299E+03  0.2483899E+06 -0.9089908E+04 -0.6776370E+08 -0.5626248E+04  0.4572141E+05  0.7794048E+03
  0.2992424E+01  0.8463778E+07  0.1162864E+06  0.1233078E+04 -0.1354440E+05  0.2067754E+03 -0.1427327E+04  0.2489574E+06 -0.8314937E+05 -0.6811853E+08 -0.1018979E+07  0.4541349E+05 -0.1407303E+05
  0.3032727E+01  0.8453943E+07  0.1026798E+06  0.2833188E+04 -0.8813826E+04  0.7171387E+03 -0.1069506E+04  0.2576105E+06 -0.5800545E+05 -0.6800734E+08 -0.1040044E+07  0.4844719E+05 -0.9929278E+04
  0.3073030E+01  0.8467428E+07  0.7050356E+05  0.2219188E+04 -0.8210192E+04  0.8517129E+03 -0.8283484E+03  0.2527633E+06 -0.6398680E+05 -0.6810162E+08 -0.7629493E+06  0.4848129E+05 -0.5678552E+04
  0.3113333E+01  0.8484377E+07  0.4799577E+05  0.1592891E+04 -0.1030600E+05  0.1144551E+04 -0.7751542E+03  0.2489586E+06 -0.9050704E+05 -0.6823346E+08 -0.5487606E+06  0.4792367E+05 -0.3821411E+04
  0.3153636E+01  0.8501259E+07  0.2600242E+05  0.1337039E+04 -0.1468289E+05  0.1164544E+04  0.9633024E+03  0.2495004E+06 -0.1341826E+06 -0.6836751E+08 -0.3242696E+06  0.4771327E+05 -0.4988920E+03
  0.3193939E+01  0.8519268E+07 -0.7522171E+04  0.1892148E+04 -0.2119791E+05  0.8472578E+03  0.6278881E+03  0.2574755E+06 -0.1890192E+06 -0.6851441E+08  0.2820345E+05  0.4558420E+05  0.4907573E+03
  0.3234242E+01  0.8554614E+07 -0.6502455E+05  0.5078938E+04 -0.3395409E+05  0.1287188E+04 -0.4100623E+03  0.2840907E+06 -0.2913208E+06 -0.6883262E+08  0.6664254E+06  0.4435226E+05 -0.8424542E+04
  0.3274545E+01  0.8590789E+07  0.9417928E+05  0.1074175E+05 -0.1630787E+04  0.1323402E+04  0.3522752E+04  0.3330626E+06 -0.2211974E+05 -0.6921729E+08 -0.8639698E+06  0.4872389E+05 -0.6229655E+04
  0.3314848E+01  0.8573094E+07  0.8824667E+05  0.5556250E+04 -0.5487155E+04  0.6290557E+03  0.2714460E+04  0.2912057E+06 -0.6435714E+05 -0.6901998E+08 -0.8980114E+06  0.4650357E+05  0.8606978E+03
  0.3355152E+01  0.8580501E+07  0.5346140E+05  0.5285930E+04 -0.8920691E+04  0.6630762E+03  0.2091131E+04  0.2920387E+06 -0.9251558E+05 -0.6906507E+08 -0.5753882E+06  0.4533963E+05 -0.3587123E+03
  0.3395455E+01  0.8593095E+07  0.2622961E+05  0.5562414E+04 -0.1041046E+05  0.4369229E+03  0.2897219E+04  0.2965655E+06 -0.1018332E+06 -0.6916408E+08 -0.3084414E+06  0.4460972E+05 -0.9512855E+03
  0.3435757E+01  0.8608078E+07 -0.4109535E+04  0.6088453E+04 -0.1103736E+05  0.3171650E+03  0.1765392E+04  0.3026585E+06 -0.1033473E+06 -0.6928831E+08 -0.1597165E+04  0.4407485E+05 -0.3836726E+04
  0.3476061E+01  0.8634897E+07 -0.4737200E+05  0.7659305E+04 -0.9723176E+04  0.4151416E+03  0.1472699E+04  0.3183204E+06 -0.8616102E+05 -0.6952765E+08  0.4569036E+06  0.4433514E+05 -0.8480726E+04
  0.3516364E+01  0.8670909E+07  0.8265160E+05  0.4374008E+04 -0.2150787E+04  0.3621475E+03  0.1622118E+04  0.2849321E+06 -0.5746952E+04 -0.6988742E+08 -0.7523114E+06  0.4715431E+05 -0.4876005E+04
  0.3556667E+01  0.8649394E+07  0.9840081E+05  0.6168055E+04 -0.9186298E+04  0.3754834E+03  0.1138283E+04  0.3022583E+06 -0.8180498E+05 -0.6966870E+08 -0.9750178E+06  0.4550471E+05  0.1067945E+04
  0.3596970E+01  0.8652657E+07  0.6276672E+05  0.6877461E+04 -0.6716126E+04  0.4758066E+03  0.1142011E+04  0.3098456E+06 -0.5879188E+05 -0.6968138E+08 -0.6476416E+06  0.4449848E+05  0.6015156E+03
  0.3637273E+01  0.8661876E+07  0.3555317E+05  0.7021758E+04 -0.3578769E+04  0.3619414E+03  0.1463273E+04  0.3117901E+06 -0.2909200E+05 -0.6975341E+08 -0.3849410E+06  0.4398000E+05 -0.8870712E+03
  0.3677576E+01  0.8674284E+07  0.8156260E+04  0.6437703E+04 -0.5150748E+03  0.3617607E+03  0.8791097E+03  0.3068089E+06  0.7492965E+03 -0.6985746E+08 -0.1113250E+06  0.4409591E+05 -0.2658912E+04
  0.3717879E+01  0.8697999E+07 -0.1170220E+05  0.5347367E+04 -0.1830833E+04  0.4534824E+03  0.8385497E+03  0.2957870E+06 -0.1013165E+05 -0.7007214E+08  0.1105085E+06  0.4445291E+05 -0.7664838E+03
  0.3758182E+01  0.8709698E+07  0.8513408E+05  0.6716320E+04 -0.7034934E+02  0.5078350E+03  0.8782080E+03  0.3099474E+06 -0.4816384E+04 -0.7018862E+08 -0.8093242E+06  0.4367836E+05 -0.7727238E+02
  0.3798485E+01  0.8701339E+07  0.7436052E+05  0.4971906E+04  0.1063470E+04  0.5542812E+03  0.1116389E+04  0.2956015E+06  0.1182836E+05 -0.7009738E+08 -0.7405809E+06  0.4338091E+05 -0.8542488E+03
  0.3838788E+01  0.8705706E+07  0.4550519E+05  0.4685156E+04 -0.2412476E+04  0.5592695E+03  0.1682677E+04  0.2929837E+06 -0.1685123E+05 -0.7012573E+08 -0.4701257E+06  0.4326246E+05 -0.1080141E+04
  0.3879091E+01  0.8713758E+07  0.1799198E+05  0.5131898E+04 -0.4804699E+04  0.3599756E+03  0.1562085E+04  0.2969032E+06 -0.3783017E+05 -0.7019069E+08 -0.2035995E+06  0.4296423E+05 -0.1472962E+04
  0.3919394E+01  0.8727190E+07 -0.1605572E+05  0.6222539E+04 -0.4835616E+04  0.4143467E+03  0.1223911E+04  0.3069323E+06 -0.3843358E+05 -0.7030736E+08  0.1341362E+06  0.4287049E+05 -0.2805047E+04
  0.3959697E+01  0.8754790E+07  0.1150641E+05  0.6208852E+04  0.1499411E+04  0.4047412E+03  0.1539353E+04  0.3063642E+06  0.2035865E+05 -0.7056609E+08 -0.9181317E+05  0.4334388E+05 -0.3040375E+04
  0.4000000E+01  0.8747629E+07  0.7883270E+05  0.5730031E+04  0.2510040E+04  0.3762803E+03  0.1031917E+04  0.3026429E+06  0.2386916E+05 -0.7049854E+08 -0.7581104E+06  0.4305218E+05 -0.1973866E+04
Zone t="Motion of body    1 in DoF   2",I=   100,F=POINT
  0.1000000E-01 -0.4300461E+04 -0.6965559E-06  0.1639325E+08  0.1782138E-05 -0.2127477E+04  0.2115621E-03  0.1340652E+09  0.1661259E-04  0.5900673E+06  0.6063760E-05 -0.1243236E+05 -0.1578859E-04
  0.5030303E-01 -0.4373438E+04 -0.6350780E-04  0.1643204E+08  0.3825364E+00 -0.2120551E+04  0.4748078E-01  0.1343852E+09  0.3123595E+01  0.5921094E+06  0.1449193E-01 -0.1253164E+05 -0.2069254E-02
  0.9060606E-01 -0.4553352E+04 -0.1530265E-01  0.1652565E+08  0.2363802E+02 -0.2103283E+04  0.5489248E+00  0.1351574E+09  0.1929984E+03  0.5970800E+06  0.9988497E+00 -0.1274456E+05 -0.8910440E-02
  0.1309091E+00 -0.4859398E+04 -0.2232768E+00  0.1668160E+08  0.3060488E+03 -0.2069842E+04  0.2858597E+01  0.1364434E+09  0.2499171E+04  0.6053588E+06  0.1311368E+02 -0.1309502E+05 -0.1550745E+00
  0.1712121E+00 -0.5343312E+04 -0.1597842E+01  0.1691243E+08  0.1964551E+04 -0.2027326E+04  0.9742955E+01  0.1383462E+09  0.1604559E+05  0.6179066E+06  0.8532796E+02 -0.1363072E+05 -0.1012068E+01
  0.2115152E+00 -0.6014547E+04 -0.7636028E+01  0.1723650E+08  0.8426270E+04 -0.1983146E+04  0.2502525E+02  0.1410164E+09  0.6884012E+05  0.6354070E+06  0.3715863E+03 -0.1432722E+05 -0.4777068E+01
  0.2518182E+00 -0.6974695E+04 -0.2880496E+02  0.1767372E+08  0.2780306E+05 -0.1951264E+04  0.5353311E+02  0.1446180E+09  0.2272150E+06  0.6594391E+06  0.1252262E+04 -0.1533584E+05 -0.1731382E+02
  0.2921212E+00 -0.8310328E+04 -0.9232959E+02  0.1824430E+08  0.7628551E+05 -0.1939900E+04  0.9947211E+02  0.1493186E+09  0.6236668E+06  0.6914022E+06  0.3534912E+04 -0.1654391E+05 -0.5223121E+02
  0.3324242E+00 -0.1019767E+05 -0.2629544E+03  0.1896021E+08  0.1824724E+06 -0.1970693E+04  0.1658460E+03  0.1552179E+09  0.1492459E+07  0.7332025E+06  0.8776927E+04 -0.1809988E+05 -0.1391762E+03
  0.3727273E+00 -0.1277601E+05 -0.6817040E+03  0.1981652E+08  0.3922030E+06 -0.2065047E+04  0.2523292E+03  0.1622790E+09  0.3209529E+07  0.7858136E+06  0.1977245E+05 -0.2009844E+05 -0.3341930E+03
  0.4130303E+00 -0.1614390E+05 -0.1634132E+04  0.2077442E+08  0.7723986E+06 -0.2238080E+04  0.3523181E+03  0.1701877E+09  0.6324542E+07  0.8487020E+06  0.4124919E+05 -0.2258523E+05 -0.7375217E+03
  0.4533333E+00 -0.2015845E+05 -0.3635177E+04  0.2173954E+08  0.1410173E+07 -0.2505031E+04  0.4517312E+03  0.1781745E+09  0.1155452E+08  0.9174521E+06  0.8054312E+05 -0.2552630E+05 -0.1511115E+04
  0.4936364E+00 -0.2399431E+05 -0.7456954E+04  0.2254030E+08  0.2399838E+07 -0.2858264E+04  0.5223483E+03  0.1848362E+09  0.1967849E+08  0.9792478E+06  0.1473905E+06 -0.2877769E+05 -0.2890534E+04
  0.5339394E+00 -0.2567070E+05 -0.1390519E+05  0.2292262E+08  0.3808168E+07 -0.3283471E+04  0.5231625E+03  0.1880871E+09  0.3125340E+08  0.1008973E+07  0.2509100E+06 -0.3196522E+05 -0.5159220E+04
  0.5742424E+00 -0.2217306E+05 -0.2309262E+05  0.2259064E+08  0.5615202E+07 -0.3704340E+04  0.4151705E+03  0.1854883E+09  0.4612766E+08  0.9713885E+06  0.3915814E+06 -0.3469411E+05 -0.8587535E+04
  0.6145454E+00 -0.1074093E+05 -0.3339539E+05  0.2132723E+08  0.7658799E+07 -0.4021322E+04  0.1720673E+03  0.1752396E+09  0.6298286E+08  0.8358279E+06  0.5506799E+06 -0.3609528E+05 -0.1324431E+05
  0.6548485E+00  0.8547875E+04 -0.4122712E+05  0.1913924E+08  0.9641792E+07 -0.4150146E+04 -0.1860882E+03  0.1573694E+09  0.7938479E+08  0.6024971E+06  0.6884681E+06 -0.3558127E+05 -0.1889784E+05
  0.6951515E+00  0.3121702E+05 -0.4293284E+05  0.1631266E+08  0.1123868E+08 -0.4053527E+04 -0.5996795E+03  0.1342021E+09  0.9265566E+08  0.3177267E+06  0.7634570E+06 -0.3306190E+05 -0.2504388E+05
  0.7354546E+00  0.5106370E+05 -0.3717329E+05  0.1329477E+08  0.1223799E+08 -0.3754660E+04 -0.9914258E+03  0.1094010E+09  0.1010437E+09  0.4778406E+05  0.7567937E+06 -0.2874512E+05 -0.3105547E+05
  0.7757576E+00  0.6370724E+05 -0.2573412E+05  0.1049274E+08  0.1260638E+08 -0.3338687E+04 -0.1300358E+04  0.8631531E+08  0.1042561E+09 -0.1568355E+06  0.6816099E+06 -0.2338342E+05 -0.3649786E+05
  0.8160606E+00  0.6836152E+05 -0.1166576E+05  0.8149392E+07  0.1244635E+08 -0.2888121E+04 -0.1500661E+04  0.6695440E+08  0.1031199E+09 -0.2808729E+06  0.5661228E+06 -0.1750445E+05 -0.4113785E+05
  0.8563637E+00  0.6665938E+05  0.2260124E+04  0.6338990E+07  0.1191256E+08 -0.2455738E+04 -0.1602632E+04  0.5194479E+08  0.9889684E+08 -0.3347362E+06  0.4384553E+06 -0.1160230E+05 -0.4494517E+05
  0.8966666E+00  0.6094414E+05  0.1451015E+05  0.5027962E+07  0.1115077E+08 -0.2086944E+04 -0.1616029E+04  0.4102399E+08  0.9277926E+08 -0.3385838E+06  0.3160778E+06 -0.5999871E+04 -0.4804751E+05
  0.9369696E+00  0.5324001E+05  0.2447247E+05  0.4135846E+07  0.1027266E+08 -0.1767344E+04 -0.1578104E+04  0.3354130E+08  0.8568511E+08 -0.3117529E+06  0.2079422E+06 -0.6690312E+03 -0.5048518E+05
  0.9772727E+00  0.4495173E+05  0.3216510E+05  0.3572698E+07  0.9354373E+07 -0.1497639E+04 -0.1504755E+04  0.2876337E+08  0.7824024E+08 -0.2687380E+06  0.1165252E+06  0.4162387E+04 -0.5243599E+05
  0.1017576E+01  0.3688852E+05  0.3790838E+05  0.3258308E+07  0.8443856E+07 -0.1247896E+04 -0.1412280E+04  0.2603547E+08  0.7084060E+08 -0.2188830E+06  0.4078291E+05  0.8684008E+04 -0.5394168E+05
  0.1057879E+01  0.2946002E+05  0.4207479E+05  0.3126888E+07  0.7568738E+07 -0.9247202E+03 -0.1332676E+04  0.2481861E+08  0.6371565E+08 -0.1678475E+06 -0.2133801E+05  0.1288480E+05 -0.5504092E+05
  0.1098182E+01  0.2285840E+05  0.4510109E+05  0.3126504E+07  0.6743618E+07  0.4831885E+02 -0.1265741E+04  0.2468648E+08  0.5698666E+08 -0.1189763E+06 -0.7303034E+05  0.1657282E+05 -0.5587415E+05
  0.1138485E+01  0.1710553E+05  0.4735017E+05  0.3218222E+07  0.5974404E+07 -0.2817492E+04 -0.1241251E+03  0.2531959E+08  0.5070530E+08 -0.7374388E+05 -0.1169836E+06  0.2077721E+05 -0.5632075E+05
  0.1178788E+01  0.1210793E+05  0.4919002E+05  0.3372887E+07  0.5260726E+07 -0.1678771E+04 -0.6630060E+03  0.2647696E+08  0.4487057E+08 -0.3238372E+05 -0.1563985E+06  0.2405333E+05 -0.5644026E+05
  0.1219091E+01  0.7776957E+04  0.5108405E+05  0.3567764E+07  0.4597552E+07 -0.1386805E+04 -0.6180121E+03  0.2796986E+08  0.3944304E+08  0.4917750E+04 -0.1952411E+06  0.2723134E+05 -0.5644032E+05
  0.1259394E+01  0.3884320E+04  0.5361074E+05  0.3786233E+07  0.3973870E+07 -0.1216718E+04 -0.5365741E+03  0.2965762E+08  0.3433711E+08  0.3930328E+05 -0.2386483E+06  0.3042810E+05 -0.5627966E+05
  0.1299697E+01  0.4492188E+02  0.5789337E+05  0.4015217E+07  0.3366589E+07 -0.9862139E+03 -0.3693007E+03  0.3142392E+08  0.2936919E+08  0.7311641E+05 -0.2971562E+06  0.3394639E+05 -0.5617100E+05
  0.1340000E+01 -0.5211332E+04  0.6683905E+05  0.4244515E+07  0.2711164E+07 -0.6372490E+03 -0.1250048E+03  0.3315847E+08  0.2402173E+08  0.1167969E+06 -0.3980787E+06  0.3847906E+05 -0.5644774E+05
  0.1380303E+01 -0.2225407E+05  0.8998236E+05  0.4508350E+07  0.1709364E+07  0.2954512E+03  0.8039103E+03  0.3500656E+08  0.1586335E+08  0.2524596E+06 -0.6412168E+06  0.4788317E+05 -0.5795678E+05
  0.1420606E+01 -0.2975499E+05  0.3435482E+05  0.7685239E+07  0.1314713E+07 -0.3697924E+04  0.1042029E+05  0.6053818E+08  0.1002443E+08  0.4830384E+06 -0.1935534E+06  0.6374586E+05  0.2137425E+05
  0.1460909E+01 -0.2559745E+05 -0.1627194E+05  0.5569006E+07  0.3053389E+07 -0.3874533E+04 -0.3213358E+02  0.4440860E+08  0.2596267E+08  0.3575204E+06  0.2842165E+06  0.2771484E+05 -0.2773903E+05
  0.1501212E+01 -0.1302641E+05  0.1141854E+04  0.5527829E+07  0.2390874E+07 -0.2872758E+04 -0.4122709E+03  0.4391433E+08  0.2078571E+08  0.2432146E+06  0.1240216E+06  0.3207099E+05 -0.3417758E+05
  0.1541515E+01 -0.1076240E+05  0.8371420E+04  0.5668888E+07  0.1980924E+07 -0.2510470E+04 -0.4460341E+03  0.4498540E+08  0.1746914E+08  0.2246521E+06  0.4902887E+05  0.3436980E+05 -0.3461340E+05
  0.1581818E+01 -0.1028888E+05  0.1164068E+05  0.5840344E+07  0.1669375E+07 -0.2329442E+04 -0.4378994E+03  0.4633479E+08  0.1490755E+08  0.2238732E+06  0.8583601E+04  0.3574594E+05 -0.3343469E+05
  0.1622121E+01 -0.1026516E+05  0.1318008E+05  0.6015605E+07  0.1412714E+07 -0.2218858E+04 -0.4162737E+03  0.4773036E+08  0.1277549E+08  0.2278975E+06 -0.1622607E+05  0.3667408E+05 -0.3158926E+05
  0.1662424E+01 -0.1037496E+05  0.1379188E+05  0.6186800E+07  0.1191897E+07 -0.2075293E+04 -0.4131310E+03  0.4910160E+08  0.1092700E+08  0.2335023E+06 -0.3245633E+05  0.3719742E+05 -0.2941547E+05
  0.1702727E+01 -0.1058569E+05  0.1402931E+05  0.6351930E+07  0.9953288E+06 -0.1818890E+04  0.2504561E+03  0.5042855E+08  0.9270020E+07  0.2402788E+06 -0.4498702E+05  0.3761466E+05 -0.2736903E+05
  0.1743030E+01 -0.1082118E+05  0.1407113E+05  0.6511190E+07  0.8164537E+06 -0.2376483E+04 -0.8860821E+02  0.5170993E+08  0.7752000E+07  0.2473541E+06 -0.5543230E+05  0.3780910E+05 -0.2450978E+05
  0.1783333E+01 -0.1118708E+05  0.1402885E+05  0.6665427E+07  0.6489720E+06 -0.2264793E+04 -0.3296852E+03  0.5295008E+08  0.6320866E+07  0.2555559E+06 -0.6520262E+05  0.3783194E+05 -0.2198085E+05
  0.1823636E+01 -0.1179103E+05  0.1407656E+05  0.6817491E+07  0.4807803E+06 -0.2212192E+04 -0.3516333E+03  0.5416739E+08  0.4871920E+07  0.2658911E+06 -0.7661891E+05  0.3793384E+05 -0.1916366E+05
  0.1863939E+01 -0.1321935E+05  0.1420202E+05  0.6981718E+07  0.2828975E+06 -0.2142722E+04 -0.2980966E+03  0.5546767E+08  0.3143789E+07  0.2840416E+06 -0.9203964E+05  0.3821639E+05 -0.1564694E+05
  0.1904242E+01 -0.1748161E+05  0.1076685E+05  0.7257702E+07 -0.1859872E+05 -0.2180619E+04  0.7281897E+02  0.5764079E+08  0.3653345E+06  0.3339151E+06 -0.8904833E+05  0.3875615E+05 -0.8404186E+04
  0.1944546E+01 -0.1573282E+05 -0.5294356E+04  0.7625040E+07  0.1165854E+07 -0.2775418E+04 -0.9574418E+03  0.6120857E+08  0.9646058E+07  0.3451365E+06  0.1135650E+06  0.2813055E+05 -0.4528975E+04
  0.1984848E+01 -0.7716926E+04 -0.3020594E+04  0.7282738E+07  0.8008362E+06 -0.2160648E+04 -0.1135000E+04  0.5825457E+08  0.7318474E+07  0.2561655E+06  0.8493512E+05  0.3137838E+05 -0.1312515E+05
  0.2025151E+01 -0.7234980E+04  0.1499997E+04  0.7344386E+07  0.5551328E+06 -0.2005146E+04 -0.9850067E+03  0.5868065E+08  0.5305398E+07  0.2520754E+06  0.3272368E+05  0.3216072E+05 -0.1159107E+05